0 -23.27441216 -31.91983986 -36.00181198
4 -22.08485603 -31.34770775 -34.74163818
0 -24.92031097 -29.477211 -35.61309814
5 -23.59536743 -28.68201447 -35.29536438
0 -26.87144852 -26.83587456 -35.51301956
5 -25.58566666 -26.04933357 -36.10220337
0 -28.71334457 -23.61193466 -35.56495667
5 -28.15652847 -23.24945641 -36.95205307
0 -30.35441399 -20.69130325 -35.87555695
5 -30.35489273 -21.07216454 -37.39977646
0 -31.8735981 -17.6344738 -36.10028458
5 -32.81814575 -18.13895607 -36.98123932
0 -33.04624176 -14.88614845 -36.49005127
5 -34.37748337 -15.62433338 -36.67863083
0 -34.30456543 -11.9612627 -36.32267761
5 -35.83825684 -12.2548008 -36.04384613
0 -35.63124847 -8.170116425 -36.30125427
5 -36.26663589 -8.810552597 -35.25445175
0 -36.45323944 -5.506427765 -35.97547913
5 -36.62794113 -5.712282658 -34.39426804
0 -37.49398041 -2.018471718 -35.95422745
5 -36.8653717 -2.1458323 -34.49380875
0 -37.69638824 1.278951526 -35.85017014
5 -36.84246063 1.353237867 -34.68699265
0 -37.92447281 4.719027042 -35.43404388
5 -36.53119278 4.738892555 -35.19332504
0 -38.52207565 8.149953842 -34.7947197
5 -37.23355484 8.6617136 -35.58003998
0 -39.04599762 11.65413761 -33.23370361
5 -38.6181221 12.1398735 -34.60749817
0 -39.18708801 14.96045589 -31.68857765
5 -39.47317505 15.63031292 -32.92422104
0 -38.73283768 18.20884895 -30.10200691
5 -39.81322479 18.64941216 -30.96552658
0 -38.26210022 20.79287148 -29.15351105
5 -39.528965 21.04925919 -29.2424221
0 -37.62288666 23.87484741 -28.17392731
5 -38.85364914 23.81825256 -27.45350838
0 -36.71553802 27.0935154 -26.78836441
5 -37.31403351 26.72079277 -25.64935112
0 -35.61534119 30.10024643 -25.07580948
5 -35.45746994 29.02778816 -23.93408012
0 -34.42620087 32.352314 -23.0754528
4 -33.3807373 31.37705231 -22.26114464
0 -8.222908974 -23.26813698 42.06404877
4 -7.262785912 -23.41510201 40.81154633
0 -9.293665886 -20.28790855 41.57024384
5 -9.346193314 -20.5937748 39.83322144
0 -10.65240002 -16.94458008 40.92702484
5 -11.38882637 -17.6461544 39.70568848
0 -12.15219879 -13.70924091 39.96380997
5 -13.38555145 -14.65796375 39.57459259
0 -13.90606022 -11.14748287 38.83165741
5 -15.16714764 -12.03680515 39.39406204
0 -15.45069218 -8.59299469 37.76393509
5 -16.44339371 -8.669514656 38.66958618
0 -16.99876022 -5.776611328 35.73313904
5 -17.6377182 -5.092505455 37.11461639
0 -18.58908653 -3.050250769 33.4780159
5 -18.156353 -1.795821548 34.59481049
0 -20.09740257 -0.8208192587 31.20903969
5 -19.00727654 0.06719794869 31.47074699
0 -21.30256081 0.8699768186 28.49531174
5 -19.92440605 1.366296053 27.92937088
0 -22.92491341 3.074301481 25.85886002
5 -21.93951035 2.833309174 25.00465393
0 -24.53575897 5.287629128 24.02237892
5 -24.52754593 4.431182384 22.63964653
0 -26.08935356 7.795348167 22.1746006
5 -26.9534626 6.699424744 21.34226418
0 -27.32478142 10.09849548 20.10801315
5 -28.43074799 9.685369492 19.97048187
0 -28.20742989 12.70153522 18.09341621
5 -29.55164146 12.60176373 18.38685989
0 -29.00477791 15.62803459 15.85063076
5 -29.7843914 16.33537674 16.98745346
0 -29.37023354 18.2634964 13.52017212
5 -29.27991104 19.08469582 14.70076084
0 -29.85620308 20.81858253 11.13764954
5 -29.15172195 21.95046997 12.06774712
0 -30.07087708 23.56991005 8.372425079
5 -28.61385345 23.97109413 8.83438015
0 -30.30915451 26.01277733 5.976825237
5 -29.016222 26.04905319 5.830636501
0 -30.37686729 28.24591827 3.565136909
5 -29.30381012 27.57734108 2.796839476
0 -30.40279388 30.48953819 0.9088960886
4 -30.26012611 29.48657799 0.2606531084
1 44.85093307 14.60555458 -21.47397995
4 44.03151703 13.27337933 -21.49968338
0 41.22795486 16.43675041 -20.66559982
5 40.88693237 15.33839226 -19.6912384
0 38.21981049 18.24608421 -20.18102455
5 38.10451889 17.85112572 -18.60879135
0 35.24608231 20.49565315 -19.73945808
5 35.62392426 20.86881065 -18.49393463
0 32.29902267 22.71293259 -19.81962013
5 32.85915756 23.83034325 -18.89286804
0 29.52278328 24.14235497 -19.50489426
5 30.16030502 25.46574974 -19.34791565
0 26.2646122 25.57425308 -19.29513359
5 26.86381531 26.83834267 -20.15412903
0 22.77794266 27.44353676 -18.65684509
5 22.76741982 28.09639168 -19.58081245
0 19.29904366 29.33301735 -18.13366127
5 19.21411133 29.45137024 -19.65988922
0 16.58803177 30.44753456 -17.73530388
5 16.39543533 29.54219437 -19.01305962
0 13.52931499 31.21954536 -17.36842155
5 13.28580379 29.86512756 -17.93393135
0 10.44557762 32.06349182 -17.24278259
5 9.934415817 30.83593369 -16.87739944
0 7.282912731 33.19377136 -16.88016129
5 6.885937691 32.25864029 -16.07891655
0 3.978997469 34.59308243 -16.84907913
5 3.802252531 34.1364212 -15.48299599
0 0.9501683116 35.40010071 -17.10035896
5 1.009995222 35.93284988 -15.53603649
0 -3.006587029 36.34911728 -16.60739326
5 -2.917733908 37.53242493 -15.50268364
0 -6.35133791 36.95037079 -16.76508331
5 -5.934685707 38.24592209 -16.39678192
0 -9.682041168 37.36481857 -16.21073914
5 -9.412392616 38.9080162 -16.79420662
0 -13.08743 37.63202286 -15.71073723
5 -13.34734917 38.41516495 -16.99269104
0 -16.79216003 37.23690796 -14.98661995
5 -16.87074661 37.17805099 -16.35074043
0 -20.51338196 36.82391739 -14.6956768
5 -20.66316032 35.84075546 -15.98787403
1 -25.07818985 36.26172638 -14.57832146
4 -25.0130024 34.84839249 -14.73948765
0 47.64742661 8.634269714 -7.869041443
4 46.30080032 9.001519203 -7.966383934
0 46.46980667 7.462240219 -4.502213001
5 45.20290375 7.014073849 -5.369214535
0 45.23033524 5.969541073 -1.032581449
5 44.75234985 4.869589806 -1.468109012
0 44.15554047 4.810674191 1.861221075
5 44.21228409 3.328114033 1.307371616
0 42.9066391 3.53152895 5.203805923
5 43.86579514 2.2561059 5.133292675
0 41.50091171 1.816619873 8.394968033
5 43.0369873 1.128380775 8.67850399
0 40.59712219 0.310161531 10.89777088
5 40.8250885 1.570053458 11.86344147
0 39.82266617 -0.804320097 12.73685932
5 39.01800537 0.5555541515 13.35133362
0 38.51821518 -2.354861736 15.21388626
5 37.46467209 -1.441389203 15.23530579
0 37.49621582 -4.106406689 18.36965942
5 36.07138062 -4.188544273 17.71956062
0 36.34368515 -5.769422531 20.92315483
5 35.24950409 -6.281616211 20.10372543
0 35.1169281 -7.04543066 23.74546242
5 34.6937561 -8.482896805 22.78687668
0 32.65628815 -9.182436943 26.73524857
5 33.18672562 -10.58531666 26.1007328
0 30.51403809 -11.02743912 29.04196167
5 31.33946991 -12.37213707 29.09140205
0 28.83683586 -12.25106907 31.01133728
5 29.71299934 -13.17397785 31.55460739
0 26.95951462 -13.72257614 33.08979034
5 28.28347969 -13.45545101 34.16560364
0 24.96695709 -15.07922935 35.48073959
5 25.86629105 -14.43143463 36.76726913
0 23.00344849 -16.28934669 37.56666946
5 23.08858109 -15.04151154 38.41809845
0 20.63715935 -17.85840607 39.45575714
5 20.24651337 -16.51338577 39.97706985
0 18.36978912 -19.37094116 40.41318893
5 17.52313423 -18.19791222 40.06209946
0 15.34205627 -21.71683502 41.16820908
5 14.58364868 -20.92827034 40.00774765
0 12.1588316 -24.43804741 41.92791367
4 11.78698444 -24.47332954 40.29974747
1 -12.98411369 -40.61587524 -34.20327759
4 -12.07411098 -39.46377563 -34.02087784
0 -12.09301186 -41.42006302 -29.18729782
5 -11.85472679 -39.92076874 -29.01531982
0 -11.56330013 -42.01331711 -25.76773453
5 -12.1859436 -40.68655777 -25.40304184
0 -10.68650818 -42.40259933 -22.49188232
5 -12.02610779 -41.55541611 -22.23299599
0 -9.206488609 -42.05010986 -19.50032043
5 -10.46021366 -42.0715332 -18.61460304
0 -7.633852959 -41.18170166 -16.3918457
5 -8.817800522 -42.13665009 -15.7090168
0 -5.851094723 -40.96366882 -12.66714668
5 -5.998854637 -42.43733215 -12.33687782
0 -4.098021507 -40.23843384 -9.507369041
5 -3.460828304 -41.81711197 -9.838602066
0 -2.48467803 -39.86207962 -6.19139576
5 -1.071480036 -40.34737396 -6.780773163
0 -0.8135015368 -39.01679993 -3.00873518
5 0.55448699 -38.87131882 -3.481202841
0 0.5644263625 -38.59416199 0.1435234547
5 1.67377913 -37.79025269 -0.2569513321
0 1.744791269 -37.94770813 3.949147463
5 2.044228077 -36.53714752 3.669142485
0 2.481343269 -37.53190613 6.857154369
5 1.730616689 -36.13944626 6.785795212
0 3.615078926 -37.19799423 10.42490292
5 2.152052164 -36.58438873 10.70985126
0 4.205914021 -36.85656357 14.61528492
5 3.132352829 -37.23580551 14.46497917
0 4.292412758 -36.16595459 18.16224861
5 3.402632713 -37.37274933 18.28198814
0 3.826799393 -35.44055939 21.63037682
5 3.950335264 -36.97578049 22.14711189
0 3.174650192 -34.77164078 24.84741402
5 4.260066032 -35.67392349 25.06822968
0 2.729564905 -34.0675354 28.3733902
5 4.068142891 -34.25720596 28.74186897
0 2.412207127 -33.18085861 31.96434402
5 3.760714054 -32.52591705 31.85934448
0 1.983586431 -32.20249176 34.54473495
5 2.990090847 -30.98531342 34.12916565
1 1.222353339 -31.17163467 38.84553146
4 1.051339984 -29.60789299 38.49837875
0 -1.476770163 -39.95222473 -40.69646835
4 -1.149667978 -39.61865616 -38.9875412
0 1.627540588 -38.42885971 -41.09896851
5 1.884836078 -39.05828857 -39.80896759
0 4.658558369 -36.79547882 -41.36126709
5 5.301231384 -38.16737366 -40.89863205
0 8.038201332 -35.32021332 -41.74749374
5 8.627960205 -36.49195862 -41.9234314
0 10.30905247 -34.01464462 -42.54957962
5 10.60450268 -34.76327896 -43.61322403
0 13.31347466 -32.25777054 -43.25658798
5 13.2071352 -32.35422897 -44.66159058
0 16.34427643 -30.22989655 -43.31472397
5 15.77774143 -29.42279816 -44.79115295
0 18.87487793 -28.60578156 -43.51952744
5 17.98841095 -27.37727165 -43.87620926
0 22.5925312 -26.49590683 -43.76394653
5 22.05586433 -24.976408 -43.2606926
0 25.84559822 -24.89720535 -44.08705521
5 25.52898407 -24.05101776 -42.92412949
0 28.55034065 -23.3415432 -44.4997139
5 28.44816399 -23.36366272 -43.18386459
0 31.04893875 -21.37443924 -44.76280975
5 31.62335205 -22.07304764 -43.4438324
0 33.70560074 -18.90643883 -44.79227448
5 34.74839783 -20.1908741 -44.27677155
0 36.59043884 -16.01836777 -44.46821213
5 37.83299255 -17.12842369 -44.58093262
0 38.86495972 -12.58750248 -43.29652023
5 39.20692062 -13.14595604 -41.86671448
0 40.62478638 -9.427602768 -42.29111481
5 41.51003265 -9.999756813 -41.50322723
0 41.91524887 -6.624629974 -41.64306259
5 43.30350113 -7.332667828 -41.56106567
0 43.73394394 -2.887705088 -40.12622452
5 44.89876175 -3.15706563 -40.98810577
0 44.78944016 0.3062291443 -38.39928818
5 45.42666626 0.8167421222 -39.56332016
0 45.95352554 3.07911849 -36.94577026
5 45.92067719 4.170167446 -38.24257278
0 46.75712585 5.535625935 -34.83109665
5 45.87567139 6.563846588 -35.4037056
0 47.75592804 7.914562702 -32.49250412
4 46.45889282 8.457367897 -31.90764809
6 -30.76976395 40.08496094 -21.56085587
6 51.00294113 14.63774967 -27.81842613
6 -22.42654228 -40.89570236 -35.83038712
6 -7.624760151 -31.87603378 43.65864944
6 8.966296196 -32.43832779 45.05161285
6 -7.784758091 -46.10585403 -40.97349167
6 51.73841858 14.48555565 -13.25199604
6 -28.23833275 37.34972 -4.662269592
2 -14.15904808 -32.22187042 -51.70772934
4 -14.23028183 -30.86606598 -52.4228096
0 -15.09172153 -33.46924973 -53.99489975
5 -14.27152634 -32.28009033 -54.71932983
0 -16.20430756 -34.64074326 -56.34642792
5 -15.08387375 -34.0446167 -56.96811295
0 -17.35231781 -36.21333313 -59.07023239
5 -16.16459465 -36.63951111 -59.59540939
0 -19.16601944 -37.93041229 -61.62595367
5 -18.02355766 -39.03504562 -61.37431717
0 -20.33866501 -39.34143829 -64.66163635
5 -20.04985619 -40.63796997 -63.92687225
0 -21.33244896 -41.06755447 -67.28157806
5 -22.09334373 -41.94863129 -66.14086151
0 -23.01387405 -42.8337326 -69.85303497
5 -24.40699005 -42.94346619 -69.03740692
0 -24.91708946 -44.91347885 -72.5487442
5 -26.30430794 -44.53919601 -72.09550476
0 -26.30759621 -46.51732635 -75.64299774
5 -27.67075729 -45.40597534 -75.58618164
3 -27.37655258 -48.35800552 -78.44558716
4 -27.86083031 -47.07629013 -79.06390381
2 -36.10258484 44.74468613 -9.397628784
4 -37.78267288 45.31981659 -9.427817345
0 -35.40567398 47.45756912 -7.864028454
5 -36.98963547 47.5118866 -7.689700603
0 -34.34295273 50.5858345 -5.971345425
5 -35.46207047 50.40355301 -5.278469563
0 -33.38525009 52.79540634 -4.275108814
5 -33.85062408 52.09597015 -3.249510288
0 -32.24078369 55.17196655 -2.201832533
5 -32.02906036 53.9577179 -0.9602741003
0 -30.48740387 58.00394058 0.1048936918
5 -29.74145317 56.96540833 0.7550777197
0 -29.35594559 60.46312332 2.657341242
5 -27.71035385 59.87778473 2.607260942
0 -28.24604225 62.97843933 5.447333336
5 -27.1435051 63.19018555 4.739363194
0 -27.70674896 65.70172882 8.255749702
5 -26.92954254 66.39341736 7.24836874
0 -26.8586235 67.67531586 10.60885334
5 -26.94968605 68.89124298 9.358096123
3 -25.6510849 70.51951599 13.45886612
4 -26.45592499 71.71102905 12.74004555
2 55.19356537 -3.343628168 -19.3105011
4 55.00016022 -4.674492836 -18.70971489
0 57.18989944 -4.254122734 -20.59234428
5 56.52589035 -5.817091465 -20.42953491
0 60.24369049 -5.946824074 -21.77378273
5 59.49168015 -6.708338737 -22.35667992
0 62.99478149 -7.610641479 -22.59568787
5 62.37305832 -7.911224842 -23.94001579
0 66.02264404 -9.402618408 -23.73471832
5 65.80286407 -8.873161316 -25.0177002
0 68.75032806 -11.16160488 -24.79219437
5 69.02021027 -10.01593781 -25.90060234
0 72.23116302 -13.24262333 -25.8684597
5 72.96471405 -11.8907032 -26.04156113
0 75.45362091 -15.66033459 -26.95085335
5 76.60874939 -14.50125313 -26.53884125
0 78.29242706 -17.93232346 -28.16978455
5 79.41442871 -17.26803017 -27.25734711
0 80.77696228 -20.35471916 -29.74209213
5 81.48961639 -20.4542141 -28.18142891
3 83.21461487 -22.73173141 -30.94462967
4 83.20770264 -23.21494865 -29.53209496
2 2.664289236 -12.29627419 52.06583023
4 3.122138262 -11.14071941 51.46900177
0 1.704754353 -10.74972248 54.70184708
5 1.43344748 -9.64288044 53.83403778
0 0.7530844212 -8.893702507 58.00314713
5 -0.132136032 -8.092926979 57.13742065
0 -0.1817176342 -6.848540783 60.51320648
5 -1.931339979 -6.447532177 60.20211411
0 -1.138491273 -4.323578835 63.32674026
5 -2.217101812 -4.794075012 63.18862915
0 -1.912361264 -2.33919692 65.73822021
5 -2.92428565 -3.382504225 66.17516327
0 -2.643314123 0.04596915841 68.41178894
5 -3.568272829 0.7319641113 67.61347961
0 -3.49967742 3.118832111 71.72501373
5 -4.882133007 3.260756254 71.21971893
0 -4.17847538 5.299218178 73.91608429
5 -5.593837738 4.516052723 73.64173126
0 -5.277777672 7.554490089 76.69500732
5 -6.297203541 6.3276577 77.18544769
3 -6.830945969 9.908771515 79.63152313
4 -7.01439476 8.803498268 80.54099274
7 -53.55181503 -75.85025024 -91.33877563
8 -55.21838379 -75.98309326 -95.90904999
8 -51.64389038 -72.18127441 -96.83694458
8 -50.23084641 -66.80155182 -95.79601288
8 -47.12472534 -62.33094406 -95.15431976
8 -42.39159012 -59.014431 -92.36978149
8 -41.33739471 -56.14696121 -88.24552917
8 -39.74123383 -59.93413162 -83.78582764
8 -35.36104965 -57.33612442 -87.45001984
8 -32.72500992 -54.68597794 -82.35884094
7 -25.12328529 57.12600708 38.79875183
8 -26.38607597 55.63214111 36.15621948
8 -21.70247841 57.07603836 32.65008545
8 -19.07192802 58.35234833 27.97442055
8 -14.66764641 59.19005203 26.64759064
8 -8.758678436 60.00535965 25.54019547
8 -7.443082333 65.70619965 25.92373085
8 -9.769752502 70.77859497 22.97472382
8 -12.79957104 70.95117188 18.74008369
8 -17.64875603 74.06092834 15.64219189
7 89.72258759 -11.66135693 -67.48246002
8 90.12132263 -14.60611153 -69.25727081
8 94.64561462 -13.51361942 -65.15307617
8 100.0376663 -11.13523865 -62.79082108
8 100.2422791 -9.010696411 -57.60222244
8 96.62747955 -13.74565792 -54.79453659
8 97.077034 -16.20380974 -49.15745926
8 94.43245697 -20.62703323 -45.46721649
8 93.51486969 -19.65761375 -39.15162659
8 91.68112183 -20.27395439 -33.09559631
7 -18.01735306 40.84136581 100.3079071
8 -14.65000629 42.96920776 99.40005493
8 -13.27639484 37.89438629 96.2607193
8 -10.06103039 33.51276398 93.57849884
8 -15.22436619 34.252285 90.69361877
8 -17.68112373 31.62997627 85.49971008
8 -22.22221756 28.28292465 82.13285828
8 -19.36263466 23.95892906 80.56443787
8 -14.10629368 20.98165131 79.26620483
8 -12.57168293 16.35436058 81.61569214
