0 -17.88455963 -35.81082916 -38.85198593
4 -17.63132668 -35.49003983 -37.63204575
0 -19.73586655 -32.48688507 -38.94866562
5 -18.45053291 -31.67424965 -38.05044556
0 -21.39212799 -29.91364288 -39.02125168
5 -19.88704681 -28.90919876 -39.28113937
0 -23.03529739 -26.77967644 -39.29047012
5 -21.85647011 -26.54327393 -40.23050308
0 -24.57752419 -23.53452301 -39.11392212
5 -24.18306923 -23.30838776 -40.76648331
0 -25.69015121 -20.23462868 -39.04718781
5 -26.34084511 -20.10608482 -40.53536987
0 -26.70508385 -17.01812172 -38.44268417
5 -28.20856285 -17.15208244 -39.28606796
0 -28.29660416 -13.05241394 -37.900383
5 -29.52358627 -13.48609447 -37.79222488
0 -29.74884796 -9.613345146 -37.4944725
5 -30.88576126 -10.17960072 -36.17670059
0 -31.11458588 -6.120689392 -37.04180527
5 -31.37532997 -6.372546196 -35.52223206
0 -32.07659531 -3.298498869 -36.72846222
5 -31.43272972 -3.375869513 -35.21394348
0 -32.81352615 0.1856937408 -36.38924408
5 -31.53026962 0.1000795066 -35.58372498
0 -33.12331772 3.489881992 -35.72713089
5 -31.50391197 3.551795721 -35.64954376
0 -33.92990494 6.514219284 -34.78395462
5 -32.49041367 7.018239021 -35.25793457
0 -34.64760971 9.748557091 -33.71829987
5 -33.85689163 10.38073063 -34.88685608
0 -34.93939972 13.0644331 -32.19749451
5 -34.64588547 13.67267418 -33.82247162
0 -34.62543869 16.11818695 -31.28709984
5 -35.34445572 16.90031242 -32.44639587
0 -34.34462738 18.75615692 -30.18815613
5 -35.40105438 19.00435066 -30.60898018
0 -34.36607742 22.19536972 -28.60957336
5 -35.74364471 22.10985374 -28.2914505
0 -34.73501587 24.73448372 -27.18942451
5 -35.88840103 24.0596981 -26.46707535
0 -34.3261528 27.21256065 -24.90489578
5 -34.78364182 26.33965302 -23.97956848
0 -33.78967285 29.72972679 -22.15337181
4 -33.44249725 28.42847252 -21.42694855
0 -4.818413258 -22.32965279 43.82509613
4 -4.480398178 -22.73087692 42.45340347
0 -6.185999393 -19.65677071 43.06861496
5 -7.037912846 -20.65697289 42.02215576
0 -7.871329784 -16.44220924 42.21894455
5 -9.122432709 -16.94803238 41.69985962
0 -9.275562286 -13.16965675 41.05799866
5 -10.65128136 -13.38386345 41.55038452
0 -10.48248959 -10.1333189 39.47031403
5 -11.56583786 -9.953251839 40.74544144
0 -11.8994236 -7.499835968 37.67108536
5 -11.93137932 -6.688986778 38.81538391
0 -13.36188316 -4.562225342 35.81665421
5 -12.56139755 -3.590277433 36.90268707
0 -14.83547497 -1.504044652 34.33852768
5 -13.51027775 -0.4570864439 34.46660614
0 -16.4777317 0.8570545912 32.85033798
5 -14.97244358 1.317673564 32.45867157
0 -18.29806137 3.519285917 30.54459
5 -17.04175568 3.512847424 29.50328445
0 -19.66053772 6.025381565 28.35397911
5 -19.1053772 5.177405357 27.10961914
0 -21.20038795 8.183897018 25.95399284
5 -21.56802177 6.826038361 25.00362587
0 -22.34019089 10.17668343 23.96766663
5 -23.23269653 9.12820816 23.71209717
0 -24.09019089 12.22435284 21.56253433
5 -25.51252365 11.63578892 21.78983688
0 -25.52727318 14.46483707 19.42329979
5 -26.84766579 14.43671417 20.22897148
0 -27.1484642 16.94401932 17.59645271
5 -28.08239555 17.48603439 18.92091751
0 -28.68811798 19.12822533 15.16458988
5 -28.82137871 20.52599907 16.08555603
0 -29.36517906 20.68286324 12.79972935
5 -28.50209618 21.80086517 13.52945614
0 -30.54474258 22.83717728 10.22586346
5 -29.27629471 23.47491264 9.986604691
0 -31.59052467 25.34790611 7.115431309
5 -30.27542877 25.10643959 6.44212532
0 -32.38352966 27.32978439 4.475092411
5 -31.53496552 26.79561234 3.771786213
0 -33.04730225 30.3250618 1.355188131
4 -32.58308029 28.84438896 0.3787761629
1 45.61090469 17.9045887 -18.18696594
4 44.64323044 16.67942238 -18.33487511
0 42.00130463 20.36596489 -17.55630112
5 41.51966858 19.46001625 -16.53046989
0 38.96141434 22.18979263 -17.07818031
5 39.19226074 21.4348526 -15.52101707
0 35.59330368 23.49087906 -16.3882122
5 35.49995041 23.74139023 -14.84861279
0 31.87289619 24.73436737 -16.32627106
5 32.36975861 25.79117393 -15.14856052
0 27.8948288 25.77961159 -15.59875774
5 28.46111107 27.28753281 -15.51936722
0 24.97796822 26.47861862 -15.31087494
5 25.34433556 28.07100296 -16.03813934
0 22.07700539 27.12921906 -14.46164894
5 21.98847961 27.94800568 -15.59871387
0 18.44367218 28.02929878 -13.33142853
5 18.02267647 28.34111404 -14.53828144
0 15.66253185 29.02890587 -12.51028728
5 15.25259686 28.27854538 -14.08855152
0 12.54406834 29.70993805 -11.70421982
5 12.05667782 28.5463047 -12.84340191
0 8.927209854 30.53960609 -10.92586136
5 8.752244949 28.93324089 -10.90600872
0 6.129247665 30.71858025 -9.960443497
5 6.355371475 29.51532173 -9.211242676
0 2.842403173 30.63429451 -9.285981178
5 3.097700834 30.1024437 -7.748195648
0 -0.9296894073 30.20602226 -9.03742981
5 -1.002463579 30.47377205 -7.564697742
0 -3.973007917 30.11615562 -9.230392456
5 -4.105931759 31.05886078 -8.010867119
0 -8.34023571 30.34864235 -9.114882469
5 -8.084594727 31.62262917 -8.784805298
0 -12.01041412 30.41759109 -8.583786011
5 -11.85400772 31.74224472 -9.113580704
0 -15.1339159 30.91524696 -8.488512039
5 -15.02835655 31.75581551 -9.76345253
0 -18.01571083 31.34992981 -8.733104706
5 -17.90383148 31.27759171 -10.22957039
0 -21.95008278 31.74736023 -9.059486389
5 -21.71944427 31.20897484 -10.4530201
1 -25.9096756 32.62969589 -10.14263916
4 -26.0273571 31.08936119 -10.61781979
0 49.5995369 7.599435806 -10.29984951
4 48.13699341 7.893887997 -10.86973572
0 48.60160065 5.549437046 -7.611727238
5 47.55075073 4.846487522 -8.350299835
0 47.65057755 3.397851229 -4.897588253
5 47.22343063 2.330240011 -5.720872402
0 46.52438736 1.651894808 -1.971827984
5 47.05831909 0.4049275815 -2.598066568
0 45.49010086 -0.02260267362 0.6218735576
5 46.88336563 -0.9792827368 0.7028254867
0 44.66386414 -1.856365442 3.907394409
5 46.10922241 -1.963998556 4.308857918
0 43.56185913 -3.419813395 6.62426281
5 44.72823334 -2.552360058 7.42512846
0 42.06472397 -5.144183159 9.168487549
5 42.27888489 -3.878484488 10.20728207
0 40.56798172 -6.98541069 11.73617268
5 40.17697144 -5.559865952 12.15777779
0 38.93500137 -9.207204819 14.72988605
5 37.81428909 -8.104230881 14.61771297
0 37.65477753 -10.60727692 16.95360565
5 36.40664291 -10.34582329 16.67950249
0 36.34078979 -12.34843445 19.60407448
5 35.31661224 -12.89045525 18.66822815
0 34.38531876 -14.67290401 22.94764709
5 33.94671631 -15.63993454 21.61078262
0 32.55669785 -16.55143929 25.31563377
5 32.65330124 -17.91949654 24.61712265
0 30.59116745 -18.31456947 28.40908623
5 31.39726257 -19.36232567 28.49900055
0 28.84432602 -19.18340492 30.7244072
5 30.20088387 -19.88866043 31.57189369
0 26.76497269 -19.96084404 32.58450317
5 27.84301376 -19.84715652 33.58527374
0 24.36394501 -21.22290611 34.69508743
5 24.57407951 -20.2104435 36.03031921
0 20.92069817 -22.27707863 36.97464371
5 20.96002388 -20.99493027 37.61962128
0 17.92396164 -23.57500076 39.53227234
5 17.34608269 -22.10366058 39.50656891
0 15.20972633 -24.44970131 41.75535202
5 14.33252907 -23.75736237 40.86941528
0 11.83838081 -25.11844826 44.06676483
4 11.06948471 -25.26675034 42.66721344
1 -8.060442924 -43.38428116 -34.56889725
4 -7.508497715 -42.03437042 -34.90496826
0 -8.740931511 -42.43203735 -30.1575737
5 -9.256527901 -40.96597672 -30.72782516
0 -9.180446625 -41.64294815 -26.83810234
5 -10.4597168 -41.09114075 -26.81888771
0 -9.580874443 -41.50304794 -23.19682693
5 -11.05257034 -41.47117615 -23.30784798
0 -9.972891808 -40.74652863 -20.27980995
5 -11.29337597 -41.45508194 -19.86786461
0 -9.732956886 -39.30494308 -16.23659325
5 -10.20641136 -40.5881424 -15.79850292
0 -9.751849174 -38.20258331 -13.35630322
5 -9.344836235 -39.6944313 -12.57582569
0 -9.599694252 -37.51424408 -9.229799271
5 -8.533444405 -38.71072388 -8.877967834
0 -9.827672005 -37.05426788 -5.450749397
5 -8.292761803 -37.22452545 -5.274954319
0 -9.739724159 -36.65493393 -2.47046876
5 -8.262234688 -36.22941589 -2.586246252
0 -9.2783041 -35.89336395 1.173246264
5 -8.594472885 -34.8477478 0.7311611176
0 -8.435259819 -35.34792709 4.692620754
5 -8.625788689 -33.82221603 4.572672367
0 -7.439609528 -34.54184341 7.937087059
5 -8.275045395 -33.09440231 7.930249691
0 -6.868296146 -33.94981766 10.66084099
5 -8.426459312 -33.13762665 10.98243523
0 -5.531760216 -33.19416046 14.29320145
5 -6.93016243 -33.49734497 14.38986015
0 -4.779072762 -32.86354065 17.82849884
5 -5.492765903 -33.77185059 18.01898766
0 -3.618897438 -33.28459549 22.21993637
5 -3.881950378 -34.63361359 22.12343025
0 -2.440571308 -33.80863571 25.49094009
5 -2.255761862 -35.2850647 25.2018013
0 -1.544342875 -33.82209778 28.77839088
5 -0.5863536596 -35.10287094 28.27017784
0 -0.4446706176 -33.86737442 32.21648407
5 1.120513201 -33.92066193 31.84464264
0 0.8826288581 -33.49269867 35.25630188
5 2.184317589 -32.93600845 34.85039902
1 2.508603573 -32.51855087 39.55832672
4 2.989189386 -31.06893158 39.18877029
0 2.261307478 -42.66162109 -43.03695297
4 2.20953393 -41.86091232 -41.80998993
0 6.150761127 -40.78323364 -44.20983505
5 6.126967907 -40.55468369 -42.49446106
0 8.854096413 -38.86709213 -45.12870026
5 9.703281403 -39.36914062 -43.59193802
0 11.80435467 -37.18729782 -46.09992981
5 12.92377567 -37.6877861 -45.14955902
0 14.56955528 -34.59736252 -46.49212646
5 15.5164175 -35.52330017 -46.73421478
0 17.10734558 -32.4604454 -46.71261978
5 17.82255745 -33.36988831 -47.95288086
0 19.66049004 -30.21621132 -46.64922333
5 19.84708595 -30.62062454 -48.19594193
0 21.99280739 -28.35848236 -46.43245697
5 21.55543137 -27.87504959 -47.94119263
0 24.11993027 -25.95868301 -45.90697479
5 23.2534008 -25.00390434 -46.60881805
0 26.53131676 -23.34911537 -45.17256165
5 25.2181797 -22.43288994 -44.99739456
0 28.81930161 -20.15997314 -44.39045715
5 27.96197701 -19.82317162 -43.4037056
0 30.83864594 -17.20386696 -43.57553101
5 30.2918911 -17.50586128 -42.44471741
0 32.35119247 -14.36389446 -42.16888809
5 32.0929718 -15.01347065 -40.69263458
0 33.53942108 -11.20522118 -40.83631134
5 34.27787399 -12.27920723 -39.66280365
0 35.42504883 -7.997756004 -39.70098495
5 36.47650909 -8.994060516 -39.31384659
0 37.16164017 -4.815879822 -38.38460159
5 38.51560974 -5.250044823 -38.90842819
0 38.84909439 -1.87691772 -37.15287399
5 39.91824722 -1.82588625 -38.19499207
0 40.3893013 1.012806535 -35.83784485
5 40.67238235 1.372412801 -37.23928452
0 41.7454834 3.467940569 -34.58095932
5 41.04805756 4.359372616 -35.89511871
0 42.8356781 6.25089407 -33.20551682
5 41.61404037 6.815507412 -33.78020477
0 44.51427078 8.596885681 -31.87976646
5 43.03536224 9.161434174 -31.53386116
0 46.04824829 11.02974987 -29.89370918
4 44.58781433 11.19703579 -28.97223282
6 -29.66542053 36.8203125 -18.73307991
6 49.71777725 18.66374779 -27.65744972
6 -17.12089157 -44.77675629 -39.12200546
6 -4.071991444 -30.46558762 47.05499649
6 7.675968647 -32.24877167 47.51775742
6 -2.794265032 -49.17901611 -40.25417709
6 52.69367218 15.63426876 -12.90744781
6 -30.2475853 37.33542633 -2.918069124
2 -9.606665611 -37.26584244 -55.05838776
4 -9.254788399 -35.67533875 -55.87938309
0 -10.32063675 -38.3263588 -57.15315628
5 -9.489114761 -37.38686371 -57.90477753
0 -11.44916534 -40.38949203 -60.63708496
5 -10.34531689 -40.10394669 -61.38679123
0 -12.80337524 -41.85109329 -64.20562744
5 -11.4289875 -41.83349609 -64.51513672
0 -13.67124271 -43.49618912 -67.62591553
5 -12.33256721 -44.45240402 -67.60955048
0 -14.31938076 -44.87109756 -70.94564056
5 -13.99061108 -46.45190048 -70.12560272
0 -15.69431782 -46.25968933 -73.90718842
5 -15.87213039 -47.76066971 -73.08247375
0 -17.41404915 -47.3601532 -77.16088104
5 -18.38871384 -48.02412415 -76.39756775
0 -19.01454544 -48.66529083 -80.3979187
5 -20.47906685 -48.93777847 -79.51242828
0 -20.21317101 -50.16614914 -83.53199768
5 -21.75985146 -49.43310165 -83.37762451
3 -20.77612495 -51.28334427 -86.78469849
4 -21.59858131 -50.07941055 -86.76223755
2 -38.58320999 43.42736435 -10.91641521
4 -40.11142349 43.66659546 -11.12184525
0 -37.97304916 46.1868248 -10.40760994
5 -39.40140152 46.42802811 -9.861398697
0 -37.34761047 49.98826599 -9.108573914
5 -38.3774147 49.66717148 -7.873545647
0 -37.04043198 53.30993652 -7.649745941
5 -36.97801971 52.65555573 -6.520996571
0 -36.71673584 56.3378067 -5.204893112
5 -35.7088623 55.4641304 -4.422294617
0 -36.67325974 58.66006851 -2.938691139
5 -35.29015732 58.55066681 -2.440579653
0 -36.85951614 61.42504883 0.06843166798
5 -35.51503754 61.74258423 -0.2669136524
0 -36.92104721 63.81424713 2.887634277
5 -35.7989006 64.52661896 2.287609816
0 -36.39800644 65.60181427 5.541555405
5 -36.1400032 66.8911972 4.557147503
0 -35.7466011 67.64431 8.991658211
5 -36.51014328 68.89672852 8.53352356
3 -35.1649971 68.51111603 12.12811661
4 -36.87711334 69.29810333 12.0266552
2 59.78749084 0.6229224801 -24.08577728
4 59.51496506 -0.8922123909 -23.60630798
0 62.52241516 -0.1730091423 -25.60078621
5 61.92829895 -1.321605682 -25.88331985
0 64.90833282 -0.96077317 -27.58672333
5 63.67009354 -1.897723556 -28.1686573
0 67.28935242 -1.82444942 -28.94691658
5 66.21107483 -2.204977274 -30.21707344
0 69.62303925 -2.75385952 -30.86408806
5 68.88437653 -2.108012438 -32.34181595
0 72.00533295 -3.709435701 -32.74045563
5 71.63593292 -2.551606894 -33.66751862
0 75.04626465 -4.495001793 -35.42565536
5 75.4896698 -2.878239155 -35.85294342
0 77.43793488 -5.213940144 -37.48381042
5 78.21470642 -4.330084801 -37.24075317
0 79.38004303 -6.064540863 -39.30851746
5 80.6563797 -5.411147594 -37.82978058
0 82.21643829 -6.945499897 -41.52579498
5 82.90461731 -7.58850193 -40.17965317
3 85.23130035 -8.362770081 -43.84970474
4 85.42569733 -9.441271782 -43.09416962
2 5.634283066 -8.620846748 51.07677078
4 6.153343678 -7.760368347 50.15797043
0 5.314627171 -6.849307537 53.20513153
5 5.302444458 -5.921945572 52.098526
0 4.571942806 -4.135464191 56.25424194
5 3.374873161 -3.415503025 55.18929291
0 3.560070753 -1.35748291 59.33629227
5 2.21186614 -1.224424243 58.71909714
0 2.391515017 1.04917562 62.01437378
5 1.261056781 0.4331057668 62.08927536
0 1.344327092 3.038233519 64.06008148
5 0.6606550813 1.98368752 64.5249176
0 -0.9651287198 5.546150684 66.84523773
5 -1.118838429 4.398975849 67.65541077
0 -3.094440222 7.962464809 69.25952148
5 -2.229193449 6.760439396 70.14172363
0 -4.259521961 9.416731834 71.99533844
5 -3.274995327 8.74604702 73.07875061
0 -5.964492321 11.82170963 75.00401306
5 -4.613664627 11.92337894 75.80243683
3 -7.199627399 13.78744793 77.93991089
4 -5.729130268 14.48912525 77.89820862
7 -53.61097717 -66.98219299 -104.6876831
8 -50.75845718 -64.2091217 -103.5925369
8 -45.77339172 -66.3646698 -104.6751099
8 -40.38089752 -64.41551208 -107.1390305
8 -38.26219177 -65.82445526 -105.906662
8 -37.68851471 -60.53761673 -107.122757
8 -35.32736588 -62.02129745 -101.7240219
8 -33.65114212 -57.63489151 -98.11947632
8 -28.53058815 -56.49634171 -95.72833252
8 -23.47302055 -56.56680298 -92.41236115
7 -18.63839722 47.15853882 50.23293686
8 -16.82397461 47.83086395 45.93565369
8 -16.49359322 50.8820343 40.73705673
8 -17.16729546 51.96157074 35.32306671
8 -15.13156128 56.91867828 34.019104
8 -17.67038918 60.8657074 30.15953255
8 -17.41978645 63.10036087 25.87546921
8 -20.35977173 66.58275604 21.55661201
8 -23.58833694 71.07796478 18.85887527
8 -28.58922958 72.02548218 15.37328053
7 111.6452789 -7.386077881 -60.15624619
8 111.0382767 -10.95341396 -59.17339325
8 110.1767349 -8.60478878 -54.39926529
8 113.9510803 -8.874364853 -50.49102783
8 114.9131012 -5.773571491 -48.58002853
8 110.4851227 -4.522529602 -45.67385864
8 105.7075424 -2.952880859 -48.03675461
8 100.2650909 -5.556292534 -48.36271286
8 96.94342804 -7.550174713 -51.81256485
8 92.57357025 -7.156001568 -48.03567123
7 -8.446361542 36.58155823 101.7327805
8 -12.37737083 35.17370987 103.5320435
8 -14.85785007 30.80901337 102.1603241
8 -20.75405121 30.97693253 103.7170715
8 -19.52624512 25.46172714 106.4194107
8 -19.83180237 24.63594437 100.657692
8 -14.4547987 22.61931992 99.91069794
8 -10.95839882 20.16793251 96.20782471
8 -12.59153938 18.48093414 89.99929047
8 -10.51157665 14.91359806 86.38272095
