0 -19.00023651 -31.97176361 -39.75660706
1 -21.87296677 -19.73368645 -38.01419067
1 -24.61002159 -5.306904316 -34.10203552
1 -27.21060944 9.003397942 -30.50794029
1 -30.99170303 21.01004028 -24.15907478
0 -34.85040665 31.05291557 -17.82703972
0 -7.604395866 -14.79156876 44.54777527
1 -9.599323273 -8.710936546 35.3483429
1 -14.77748775 0.9636207819 26.23373032
1 -22.09526825 10.31220055 17.08016586
1 -30.04029465 19.45168114 9.245601654
0 -33.63555908 29.27026176 5.485766411
2 43.09910583 8.912643433 -22.91545677
1 32.99146271 14.44082642 -19.50558662
1 19.81217003 20.06178474 -15.63851166
1 7.048796177 27.42132187 -14.06165504
1 -5.173048496 36.45585632 -11.50505924
2 -17.28684044 40.4472084 -9.938975334
0 55.42769623 -1.220891833 -7.949645519
1 49.3069725 -5.192432404 2.432795048
1 42.39973068 -5.574973583 15.7541275
1 34.69173813 -4.478090286 28.16379547
1 23.50770187 -6.952702522 36.09809113
0 15.81392384 -9.836678505 44.38957977
2 -10.86120319 -40.00193787 -25.22760391
1 -9.249438286 -35.76194763 -15.37541866
1 -3.320985079 -32.00920486 -4.423265457
1 1.914945722 -28.83263397 9.713515282
1 5.602797031 -30.11628532 24.56901932
2 9.631079674 -26.71917915 36.88980103
0 -1.749779344 -35.97851944 -44.83124542
1 8.282529831 -32.09508896 -43.97556305
1 21.32218361 -26.32187462 -41.64632416
1 33.54263306 -18.63198471 -39.9244194
1 43.20394897 -8.308442116 -35.25154114
0 50.67912292 -1.066835523 -30.46377182
6 -22.81045914 34.87815857 -22.65778923
6 45.13738632 1.606762886 -21.74228096
6 -18.7239933 -44.27339554 -35.69331741
6 -0.2124408334 -25.72178459 40.71136856
6 19.25198555 -21.61009026 45.19774246
6 -3.595333815 -45.53691483 -36.09710693
6 55.86668015 7.115705967 -18.88049507
6 -27.18777847 32.15229034 -5.436986446
3 -11.18526459 -26.03969193 -55.85153198
4 -20.13426399 -34.46429062 -60.5304184
5 -28.25088692 -46.35108948 -68.07323456
3 -39.72858429 43.65079117 -4.60787344
4 -31.72640419 51.68120956 1.596021295
5 -18.9369545 62.51985931 7.339802742
3 55.07712173 -14.71439075 -19.81681252
4 64.212677 -11.54914284 -28.76665878
5 78.116539 -5.280530453 -36.37720108
3 3.727016926 -9.177202225 58.54356384
4 -0.2869081795 2.830094099 56.6113739
5 -4.494049549 18.26655388 54.46823883
7 -45.73070145 -80.88014984 -76.81359863
8 -29.84210587 -77.62893677 -70.70552063
7 -40.16911697 70.7070694 17.30801201
8 -33.69156265 76.03109741 24.03423119
7 105.4682999 -11.65901184 -60.925354
8 95.88257599 -19.97288895 -50.04092789
7 -2.258001804 53.57624054 83.09818268
8 7.812467098 34.97695923 77.0451889
