0 35.75812912 -33.64624023 14.53275871
2 34.83592606 -34.81326294 13.91749477
1 33.64925003 -32.57466888 18.20601463
3 33.35044098 -34.14977646 18.29704475
1 31.53840065 -31.6602459 21.02750015
3 32.21271515 -32.89586639 21.73033714
1 29.44929695 -30.63123131 24.22854042
3 30.11347961 -30.93925285 25.15706444
1 27.3799839 -30.01338005 27.82175827
3 28.54921913 -29.63057137 28.45571899
1 25.85514259 -29.03509521 30.43678093
3 27.10255051 -28.1183815 30.70446205
1 24.27755356 -27.83009338 33.34241867
3 24.65151024 -26.33143616 33.05458832
1 22.37086105 -27.05051994 37.23178482
3 21.90656281 -25.64637184 36.95785904
1 20.93200493 -27.16775322 40.30776215
3 19.56123352 -26.24427605 39.50453568
1 19.26712608 -26.7390213 43.32812881
3 18.0807209 -26.8344059 42.68994904
1 17.6002121 -26.42512321 46.7009201
3 16.59388161 -27.46720123 46.41352844
1 15.41083527 -25.69358444 50.10694504
3 15.0713644 -27.35979843 50.25910568
1 13.29574013 -25.30154037 53.2690773
3 13.83848667 -26.53952599 53.52842712
1 11.41109562 -24.91739845 55.89729309
3 12.33338451 -25.80928612 56.70448303
1 9.4851017 -24.53467941 58.68660736
3 10.70342827 -24.44336891 59.80558014
1 6.938349724 -23.83561516 61.25834274
3 7.959776402 -22.80770111 61.80171585
1 5.164509296 -23.28177643 63.63140106
3 5.354340076 -21.82844734 63.56913757
1 3.148563385 -22.33388329 66.88244629
3 2.757558346 -20.85730362 66.05156708
1 1.134579897 -20.76938248 70.26932526
3 -0.01970457844 -20.31053925 69.17939758
1 -0.7073733807 -19.00655365 72.66669464
3 -1.997153759 -19.63542366 72.11936188
1 -2.766730547 -17.14176941 75.97134399
3 -3.678435087 -18.84702301 75.96305847
1 -4.066857815 -16.15900803 78.29113007
3 -4.396075249 -17.6730442 79.05783844
1 -5.752230644 -14.94561577 81.09920502
3 -5.183596134 -15.95252895 82.0989151
1 -7.022941113 -13.36773396 83.55528259
3 -5.556400299 -13.64745426 84.41632843
1 -8.581640244 -11.70610428 86.80244446
3 -7.184185505 -11.08571529 87.18942261
1 -9.866125107 -10.05978107 89.69787598
3 -9.137746811 -8.840626717 89.555336
0 -11.69294739 -7.343613148 93.70429993
2 -11.77573872 -5.973965645 92.83615112
0 100.6219177 19.99132156 33.12576294
2 100.8363113 21.29498291 33.53724289
1 97.15611267 20.49740028 31.29527092
3 97.855896 21.73237228 30.48179436
1 94.14227295 21.0280838 29.88378906
3 94.91225433 21.51984787 28.50247002
1 91.48625946 21.61212349 28.33963776
3 92.24417877 21.38033485 27.04038239
1 88.11654663 21.77337265 26.14925385
3 88.60021973 20.60519791 25.17139626
1 85.12225342 22.1027565 24.66871262
3 85.03606415 20.88404655 24.31732941
1 82.36154938 22.37791252 22.82309532
3 81.84275818 20.90524483 22.99289322
1 79.52763367 22.94678879 20.8377037
3 78.81707001 21.97788811 21.71346855
1 75.98215485 23.12123108 18.51669312
3 74.73458862 23.05004501 19.58595467
1 73.03056335 23.63973808 16.06412125
3 72.07132721 24.39501762 17.16791916
1 70.29523468 24.00893402 13.98540878
3 70.15704346 25.23087311 14.59284019
1 66.55165863 24.44266891 11.70023823
3 66.5583725 25.70716858 11.47757244
1 63.74735641 25.00865173 10.05695724
3 64.20920563 26.3553772 9.674704552
1 60.88236237 25.43876457 8.236183167
3 61.68404388 26.06241035 6.880793095
1 58.15134048 25.26945496 6.44435215
3 58.89866257 25.10969925 5.205339432
1 55.10963821 25.49160385 4.983836174
3 55.36379623 24.32853699 3.916862488
1 51.22128677 26.01357269 3.546472788
3 51.32561874 24.7927475 3.065800667
1 48.32210541 26.71240044 2.306185246
3 47.86722946 24.97886848 2.530002594
1 44.94659805 27.38084221 0.2159422785
3 44.07320404 26.33423996 1.016716361
1 41.78835297 27.89598846 -1.804218292
3 40.87716293 27.21634865 -0.3838585615
1 38.90235519 28.50553322 -3.650584698
3 39.41921234 27.44583321 -4.565095425
0 35.1435585 28.94372559 -5.855356216
2 35.0463295 27.07049561 -6.333590508
0 -16.45239258 12.45537472 99.55849457
2 -16.35917854 11.04987621 98.7636261
1 -16.54655266 14.53112125 95.23937225
3 -17.65716362 13.53098297 95.05011749
1 -16.92011833 15.8880949 92.05211639
3 -18.65516663 15.51790619 92.15354156
1 -18.01995277 17.58859253 88.71030426
3 -19.06220818 17.95628929 89.61363983
1 -18.75934792 19.68247604 85.57590485
3 -19.34537315 20.74219513 86.48570251
1 -19.35533714 21.96023941 82.15396118
3 -18.9669323 23.36903572 82.71157074
1 -19.69060898 24.0892067 78.31135559
3 -18.35006523 24.93187523 78.88877106
1 -19.64442444 25.97484207 75.1852951
3 -18.17686081 25.80185127 75.13944244
1 -19.62237167 27.82168579 72.34429932
3 -18.3080883 27.13712311 71.76763153
1 -19.82503128 29.60357285 69.11764526
3 -19.50997162 28.31331444 68.39295197
1 -20.06183624 31.62401581 65.33304596
3 -20.7965889 30.33604813 64.64434814
1 -20.45427513 33.25846481 61.63220978
3 -21.59300613 32.78517532 61.50341415
1 -20.34332085 34.47173309 59.03472137
3 -21.57265472 34.75664139 59.33052063
1 -21.1516571 35.95388412 55.37984085
3 -21.58560753 37.22216797 56.15085602
1 -22.10318947 37.65000916 51.87761307
3 -21.99560738 39.02296066 52.62940216
1 -23.17855263 38.92676544 48.69097519
3 -22.25110245 40.01939774 48.99551392
1 -23.78376961 40.28205872 45.19319534
3 -22.31395531 40.57044983 44.77910995
1 -24.99120331 41.14100266 41.78039169
3 -23.83251762 40.57032394 41.07697296
1 -26.54187393 41.57741165 38.60781097
3 -26.16833115 40.53022003 38.21445847
1 -27.96846581 42.01987076 35.93540955
3 -28.47345161 40.41807556 36.09346771
1 -29.32598305 42.15992355 33.12047195
3 -30.60873604 41.34621429 33.78960037
1 -30.84580231 42.16691208 29.55475998
3 -32.14367676 42.06428528 30.30772209
1 -32.08925629 42.44301605 26.00278854
3 -33.56222534 42.52749634 26.59508705
1 -33.18222427 42.41523361 23.05182838
3 -34.01325989 43.47480392 23.12034988
1 -34.14582443 42.27526093 19.44562912
3 -34.65540314 43.733181 19.55387115
1 -35.21008682 42.07813263 16.05242729
3 -34.79572678 43.66817093 15.65208435
0 -36.45773697 41.30944824 11.98444843
2 -35.50961304 42.20265579 11.44843102
0 -1.827103853 -102.5522003 0.7218340039
2 -1.066993237 -102.8589478 1.991410255
1 1.407445431 -98.96220398 -0.1651738286
3 2.817671299 -99.99179077 0.3558495641
1 4.021452904 -96.27426147 -0.1302245408
3 5.086499214 -97.15267181 -1.046388865
1 6.524153709 -92.99249268 -0.292080313
3 6.942760944 -93.62523651 -1.701162934
1 8.639596939 -90.38825989 -0.1993533373
3 8.361722946 -90.42418671 -1.716004133
1 10.96805763 -88.46609497 -0.3108493388
3 10.05503559 -87.57068634 -1.294245601
1 13.24966621 -86.5925827 0.1130970493
3 12.34789562 -85.44794464 -0.1811551899
1 15.5514183 -84.33680725 0.5099612474
3 14.65544128 -83.36727142 1.340821385
1 17.59825706 -82.49740601 0.8008161783
3 16.93052483 -81.83976746 -0.07671159506
1 19.83573723 -80.03625488 0.9883552194
3 18.69454193 -79.17675018 0.5833310485
1 21.65741158 -76.94454193 1.26671195
3 20.29771042 -76.34052277 1.793802381
1 23.36698341 -73.37269592 0.9661312699
3 22.6279068 -72.84819794 2.118265152
1 24.98903084 -70.16133881 0.4654907286
3 24.95043182 -69.91706848 1.870779276
1 26.26122665 -67.37523651 -0.03992268071
3 27.09116364 -67.14345551 1.332614064
1 27.565485 -64.08185577 -0.287550211
3 28.91863823 -64.31330109 0.4251012504
1 28.74185181 -60.88497162 -0.6514487863
3 30.18066978 -61.69156647 -0.8309444189
1 30.48684692 -57.49569321 -0.9734105468
3 31.78034401 -57.96443939 -2.049871683
1 31.9793396 -54.56569672 -1.095417261
3 32.14716339 -54.89105606 -2.303608656
1 33.6335144 -51.30147171 -1.553122163
3 32.97541809 -51.13867569 -2.896797895
1 34.94259262 -47.38724899 -1.926749468
3 33.83721924 -47.11190033 -2.655285597
1 36.66804123 -43.88495255 -3.041992426
3 35.61020279 -43.42381287 -3.297967196
0 39.14047623 -40.35746002 -4.355843067
2 38.4188118 -39.62805176 -3.644439936
0 23.15543556 9.615119934 -109.8298416
2 22.00359917 9.899604797 -108.8358307
1 25.92167091 8.373775482 -106.1859055
3 24.62594414 7.81772089 -105.4021912
1 27.73361206 7.499743938 -103.1539612
3 26.86999512 5.945972919 -103.1413956
1 29.07430267 6.774145603 -100.0900574
3 29.0756588 5.229775906 -100.5466766
1 30.43370819 5.981758595 -96.53594971
3 31.31646347 4.969475269 -97.179245
1 31.72275162 5.04198885 -92.96392059
3 33.13749695 5.019753456 -93.23542786
1 32.80122757 4.593412876 -89.49837494
3 33.84321213 5.268875122 -89.85675812
1 33.57943344 3.915871143 -86.62175751
3 34.24660873 5.375520706 -86.36801147
1 34.37989426 3.211268663 -83.37889862
3 34.02913666 4.906385422 -83.08618164
1 35.03282166 2.421558857 -80.04610443
3 33.98395157 3.617352486 -79.60176849
1 35.11173248 2.284704208 -76.24981689
3 33.50616074 2.566783905 -76.01196289
1 35.53054428 1.987087369 -72.49378204
3 33.98016357 1.541717172 -72.48934174
1 35.80552673 2.064583063 -68.4666748
3 35.15206528 0.9448768497 -68.50325012
1 35.94637299 2.14431715 -65.33991241
3 35.77850723 1.009175539 -65.20661163
1 35.89117432 2.269709587 -61.09502411
3 36.6970787 1.080167413 -61.26529312
1 35.55583572 2.559268951 -58.06571579
3 36.95644379 1.882899284 -57.95085144
1 35.47598648 3.287891865 -53.995224
3 37.02358627 3.712979317 -53.89539719
1 34.82469559 4.24625349 -50.43833923
3 36.21657562 5.267193794 -50.65264511
1 34.66894913 5.225469112 -46.81381607
3 35.10351181 6.332091331 -47.18812561
1 34.69599152 6.454453468 -43.68730164
3 34.41077423 7.811118603 -44.6469574
1 34.74287033 7.662800789 -40.66941452
3 33.95758438 8.831860542 -41.38049698
1 34.68738174 8.599776268 -37.25498581
3 33.41829681 9.479563713 -37.4095726
1 34.03979111 9.270186424 -34.08063126
3 32.56279755 8.951498032 -34.43320465
1 33.89169693 10.79754829 -30.15970802
3 32.6836319 9.725701332 -29.91086388
1 33.39128494 11.98531914 -27.17409515
3 33.01130676 10.74061394 -26.71749306
1 32.52705002 13.37564182 -23.91555023
3 33.11877823 12.37339592 -23.21490288
0 32.08723831 15.26524544 -19.67007828
2 33.23786926 14.64475822 -19.09112167
0 41.79650497 -12.02395344 -4.677206993
2 41.44695282 -10.63639927 -4.729855537
1 45.79974365 -11.17015457 -3.57098031
3 45.53369522 -9.959194183 -3.051384211
1 48.89151382 -10.41866493 -2.745329142
3 48.52633667 -9.654097557 -1.537343979
1 52.90761185 -9.62514782 -1.597530246
3 52.2359314 -9.733877182 -0.08568435907
1 56.3699646 -8.796724319 -0.1783686578
3 56.45983124 -9.774820328 0.5449889898
1 59.75595856 -8.048768997 0.6996421814
3 59.97505188 -9.464436531 0.8198158145
1 62.74780655 -7.579084873 1.849356771
3 63.03839493 -8.844640732 1.234376907
1 65.7232666 -7.391587734 3.008040667
3 66.44165802 -8.073682785 2.01145196
1 68.53948212 -7.693897247 4.682684422
3 69.1081543 -7.286795616 3.157209158
1 72.40008545 -7.598155975 6.351007938
3 72.85096741 -6.580170155 5.257400036
1 75.63026428 -7.49300766 7.94559288
3 75.86631012 -5.938884735 7.453917027
1 78.82111359 -7.590438843 9.8450737
3 78.84012604 -6.158744812 10.22048378
1 82.14492035 -7.690627575 11.49900436
3 82.8571167 -7.643027306 10.14662552
1 85.60353851 -7.047903061 13.02362728
3 86.12442017 -6.132849216 11.72602749
1 89.2117157 -6.42000103 15.13333511
3 89.24736023 -5.166175365 14.54252338
1 92.28846741 -5.140226841 16.35257339
3 91.77469635 -3.773106813 16.30943298
1 94.86968994 -4.5122962 17.88895416
3 94.13574982 -3.292531252 18.39467049
1 97.24914551 -3.845486403 19.04361153
3 96.50739288 -3.324504852 20.23493767
1 99.90450287 -3.110459566 20.8514576
3 99.29982758 -3.288159609 22.31254196
1 103.1472321 -2.030865192 22.50670433
3 102.4950256 -2.968267441 23.7140255
1 105.366127 -1.070122242 23.62611771
3 105.8328629 -2.335211754 24.1872921
0 109.209343 0.6083170772 25.56719017
2 109.7733765 -0.7195993662 25.09197044
0 -120.166626 2.777275085 11.31555939
2 -120.5412674 2.047617435 10.1318922
1 -116.0235672 2.334450006 10.6078434
3 -116.1481171 2.498615265 9.040066719
1 -112.1060257 1.509187698 10.12263966
3 -112.2257843 2.591013193 9.192991257
1 -108.2958069 0.4807276726 9.682837486
3 -107.8319092 1.746366978 9.459336281
1 -104.6944122 -0.9030788541 9.627999306
3 -104.3393326 0.4343740344 10.11493874
1 -101.2572403 -2.881162643 9.040115356
3 -100.796402 -2.391267061 10.18810654
1 -98.31861877 -4.121524334 8.727334976
3 -98.13356018 -4.040658474 10.19887924
1 -95.14944458 -4.819538116 8.168511391
3 -94.93319702 -5.693910599 9.538998604
1 -92.30498505 -6.257043362 7.717999458
3 -92.64624023 -7.437671185 8.274838448
1 -89.71906281 -7.627045155 7.450190544
3 -90.52159119 -8.933348656 7.025963306
1 -86.14219666 -9.326538086 7.346152306
3 -86.40666962 -9.835101128 5.743927479
1 -82.65318298 -10.56913948 7.395776749
3 -82.56311798 -10.35641193 6.030135155
1 -79.5161972 -12.04490662 7.150366783
3 -79.31305695 -10.87115383 5.991871357
1 -76.78649902 -13.461483 6.880117893
3 -76.05513 -12.22552395 6.235825062
1 -74.04471588 -14.96356392 6.202673435
3 -73.40011597 -13.80526543 6.704823971
1 -70.76581573 -16.64081383 5.808195114
3 -70.26442719 -15.85477543 7.17547369
1 -67.63668823 -18.38020706 4.918607712
3 -66.99914551 -17.3603344 6.092627525
1 -64.77062225 -19.6535244 4.451467514
3 -64.31334686 -19.6129055 6.066169262
1 -61.12801743 -20.72527313 3.946641684
3 -61.29333878 -21.53019905 5.522953987
1 -58.27756882 -21.67451096 3.717510462
3 -58.0522728 -20.59205055 2.513874531
1 -54.74069595 -23.22981834 3.241761684
3 -53.98698807 -21.91376305 2.76770401
0 -51.4418869 -24.94125557 2.529233217
2 -50.82308197 -23.4532814 3.045003414
0 -25.74839401 -27.9873333 -6.919921398
2 -24.65194702 -26.95376015 -7.478331566
1 -23.26433372 -31.38878059 -8.118002892
3 -21.90852928 -30.57636452 -7.351511002
1 -21.7059803 -34.55344391 -8.78027916
3 -20.7399559 -34.32086563 -7.53317976
1 -20.31917572 -37.90270996 -9.603347778
3 -20.09953499 -38.16704941 -8.16223526
1 -19.2009201 -40.80276489 -10.49529743
3 -19.59706497 -41.28216934 -9.061731339
1 -18.25564003 -43.60591125 -10.97828197
3 -19.24891853 -44.35848618 -10.06202126
1 -17.22777939 -47.16949081 -11.79636097
3 -18.83458328 -47.16693115 -11.66343307
1 -16.41900253 -50.23913956 -12.25453091
3 -17.78828049 -50.49547958 -13.05488873
1 -15.91357803 -53.94467163 -12.92462921
3 -16.56340599 -54.14012909 -11.34997272
1 -15.74111748 -57.40238571 -13.46583557
3 -17.40365791 -57.72039032 -12.70472622
1 -15.73150539 -60.86931992 -13.96490574
3 -17.37044525 -60.99283981 -14.32155895
1 -15.19190693 -64.4309082 -14.82741642
3 -16.25530052 -64.23633575 -15.62180138
1 -15.29971695 -67.41189575 -15.41390038
3 -15.4217186 -67.385849 -17.12786102
1 -14.90936947 -70.68919373 -16.37159538
3 -14.18813229 -70.29279327 -17.69311333
1 -14.45351505 -74.10346222 -17.37747955
3 -13.09231091 -73.71244812 -17.84773064
1 -13.87767029 -77.60338593 -17.83168221
3 -12.36007214 -77.71104431 -17.48514557
1 -13.20087719 -81.4981308 -18.06549644
3 -12.22618008 -81.26428986 -16.83624458
1 -12.50361252 -84.49626923 -17.95487213
3 -12.47009563 -84.38320923 -16.7155323
1 -11.87899017 -88.3817749 -17.44535446
3 -12.49278927 -88.55818939 -16.01914024
1 -11.28281879 -91.87802887 -16.53553009
3 -13.04657555 -91.80945587 -15.68793392
1 -10.81661987 -95.52258301 -15.40203667
3 -12.3418541 -95.77832031 -15.54695797
0 -11.02791119 -99.59108734 -13.64480209
2 -12.18470001 -99.97210693 -14.622756
0 32.19948196 94.21694946 -4.756744385
2 32.92690277 94.36817932 -3.79572463
1 31.5771122 89.87275696 -3.802315474
3 31.56151199 90.12756348 -2.137167454
1 30.95333481 86.61914825 -3.528035641
3 30.17479324 86.96517181 -2.316556692
1 30.17751312 83.27030182 -3.115942001
3 28.79668045 83.81048584 -2.60332799
1 28.96765709 79.67341614 -3.016796827
3 27.6182003 80.25704956 -3.438138008
1 27.80149078 76.34237671 -2.906565905
3 28.08818245 76.33006287 -1.456679344
1 26.67830467 73.28980255 -2.697493792
3 26.08402061 73.54492188 -1.217376232
1 25.38117981 69.89902496 -2.5898242
3 24.09651756 70.3094101 -1.819859982
1 24.14241219 66.95285034 -2.852849722
3 22.48654175 67.73786163 -2.882250547
1 22.77066612 64.04803467 -3.473619699
3 21.59817886 64.60546875 -4.077795982
1 21.27930641 60.31988144 -4.129389763
3 20.16428375 61.1944313 -5.615304947
1 20.04485512 57.57009888 -5.125061035
3 19.91139793 58.08530426 -6.447835445
1 18.68309212 54.77602386 -6.18136549
3 18.94185066 55.08947754 -7.817971706
1 16.81408882 51.7742691 -7.213658333
3 17.81745911 51.33437347 -8.55599308
1 14.92434788 47.98191833 -8.344697952
3 16.28431702 47.20647812 -8.868391037
1 12.76758194 45.02485657 -9.601675034
3 14.22825432 44.27208328 -9.425761223
1 11.3089447 41.80290222 -10.82832241
3 12.17760468 40.92754364 -9.739883423
1 10.2974844 39.53503799 -11.80212784
3 10.7052412 38.64853668 -10.34670258
1 9.661227226 36.26721954 -13.07718372
3 8.966233253 36.07590103 -11.74255371
1 9.051037788 32.36349869 -14.05368423
3 7.477972984 32.59315872 -13.54862785
1 8.413943291 29.07567978 -14.94174194
3 7.081994534 29.5382309 -15.231884
0 7.737035275 24.88624573 -15.72879601
2 6.895580769 25.22618675 -16.72449112
0 17.50570297 17.78826714 10.15007019
2 18.4174118 16.5763855 10.06079769
1 17.59039497 18.26313782 14.06046867
3 18.97429466 18.02078819 13.72379971
1 18.08114052 18.97426605 17.66255569
3 19.60774422 19.48969078 17.30378342
1 19.02112198 19.34349632 21.22054291
3 19.96868706 20.68332481 20.98384094
1 19.77060699 18.92712402 24.62311745
3 19.50586319 20.26768494 24.99615669
1 20.28882599 18.62534523 27.86047554
3 19.08961105 19.53616905 28.13184738
1 20.73693848 18.25368881 31.12790489
3 19.35652733 18.49612236 31.27788162
1 20.68652344 18.45949173 34.37055969
3 19.5486393 17.47403526 34.12271881
1 20.44081116 17.79236221 37.61101532
3 19.8290844 15.98466015 36.91313934
1 20.18320465 17.48606873 40.85260773
3 20.67682266 16.28444862 40.71842957
1 19.78785896 17.28743935 44.8428688
3 21.23021507 16.44895554 44.91114044
1 19.43149185 16.87613678 47.96558762
3 20.90987778 17.18687248 48.23236084
1 18.8871212 16.2646389 51.53355026
3 19.84889412 17.64944839 51.9350853
1 18.23946953 15.80035496 54.51024628
3 18.67895699 17.34647179 54.98716354
1 17.47276115 14.92233658 57.84337997
3 17.01350975 16.22787285 57.90265656
1 16.28794479 14.29361248 61.04316711
3 14.80380344 15.07791042 60.78574753
1 14.92104053 13.46870136 65.14382172
3 13.18925476 13.34460449 64.83066559
1 13.84671402 12.76514912 68.58065033
3 12.52541733 11.72319031 68.24880981
1 12.70247936 11.91905022 71.70661926
3 12.18793583 10.41842365 71.31239319
1 11.95647907 11.50321102 74.6891861
3 12.45057106 10.21632671 74.49168396
1 10.70584965 10.65564156 78.28623962
3 12.04448605 9.800209045 78.62023926
1 9.586271286 9.77202034 81.68656158
3 10.68736744 10.21659946 82.50917053
1 8.6621418 8.832683563 84.17028809
3 9.64061451 10.0017643 85.24203491
1 7.647057533 7.69068861 87.06575012
3 7.772384167 9.002428055 87.67047119
1 6.219505787 5.995012283 89.78848267
3 5.041366577 7.142317295 90.20911407
1 4.961909294 4.77700758 92.46959686
3 3.627189159 5.17837286 92.085495
0 3.055345058 2.934737444 96.51602936
2 1.73599875 3.105973244 95.54170227
0 -23.3311882 19.85195923 -17.34063339
2 -22.3174305 20.83786392 -17.4309864
1 -22.19591522 19.9179306 -21.96889496
3 -20.95351791 19.86441803 -21.49843788
1 -20.37546158 20.08194923 -25.86623192
3 -19.14245987 19.22732735 -25.31057167
1 -18.83744812 19.95454788 -29.32764626
3 -18.6837368 18.27283859 -29.04651642
1 -17.21057129 19.65368843 -32.40631104
3 -17.91948128 17.9893074 -32.72386551
1 -15.99025726 18.74435997 -35.82193375
3 -17.12485504 17.963377 -36.29958725
1 -14.5244875 18.72678757 -39.36360168
3 -15.93337154 19.15726471 -39.97156143
1 -12.31045151 18.82740402 -42.99029922
3 -12.94492435 19.98730659 -43.41071701
1 -10.4230814 19.07988548 -46.32863235
3 -10.74739361 20.68406677 -46.46929932
1 -9.534637451 19.20647621 -49.7911377
3 -8.887218475 20.48422432 -49.66402054
1 -8.875234604 19.14865875 -52.68310547
3 -7.812746525 20.04655838 -52.41345596
1 -8.024666786 18.68671608 -55.64149094
3 -6.559994698 19.00759506 -55.34013367
1 -7.390901089 17.96706772 -58.88556671
3 -6.605511665 17.10811043 -58.52843857
1 -6.890422821 17.52620697 -61.87129211
3 -6.650123596 16.16873932 -61.41400909
1 -6.365530491 16.90336418 -65.5221405
3 -7.314698219 15.70870399 -65.62343597
1 -6.082075119 16.51301003 -68.45033264
3 -7.544062614 15.8052969 -68.39672852
1 -5.704081059 15.86449528 -72.13721466
3 -7.084313393 16.18529701 -72.53321838
1 -5.068013668 15.21004581 -75.56890106
3 -6.058092117 16.43298531 -76.05627441
1 -3.982965708 14.80148792 -78.81235504
3 -5.391963482 14.32918262 -79.29266357
1 -2.502339602 14.07347298 -81.73907471
3 -4.090006351 14.29572678 -82.36998749
1 -0.8788099289 13.07501125 -84.58911133
3 -1.936912656 13.58005714 -85.53264618
1 0.9325217605 12.36363411 -87.67881012
3 0.2114498317 13.55359077 -88.14984131
1 2.29844594 12.46629238 -90.62693787
3 2.374372721 14.0490694 -90.42610931
1 3.778124094 12.40727997 -93.57499695
3 4.265925407 13.66559505 -93.01641846
1 5.589470863 12.29512405 -96.94809723
3 6.688830376 12.97444248 -96.43761444
1 7.450088024 12.36983776 -99.93694305
3 8.840279579 12.42679882 -99.01717377
0 9.810548782 12.78639412 -103.6731186
2 10.74944401 11.49124622 -103.2619781
0 19.97281075 92.19857788 -18.43318748
2 19.08789825 92.81010437 -19.32666779
1 16.98576355 87.84023285 -18.30760956
3 16.67028236 87.83217621 -19.67041969
1 14.61358643 85.05628204 -17.91061401
3 15.0953207 84.65174103 -19.40088463
1 12.43315983 82.04166412 -17.94890976
3 13.42053699 81.51809692 -19.10111618
1 10.18074989 79.27605438 -17.67060661
3 11.45254517 78.34220886 -17.98016739
1 7.388348103 76.51428223 -16.95231438
3 8.154038429 75.66577911 -16.37308311
1 4.582703114 73.61875153 -15.96625328
3 5.613950729 73.16890717 -14.93853283
1 1.834834933 70.60525513 -14.95344543
3 2.456287622 70.5892868 -13.38189697
1 -0.3123995066 67.60461426 -14.07814693
3 -0.5811267495 68.39051819 -12.64839649
1 -2.550313234 64.67254639 -13.85345268
3 -3.366534948 65.37478638 -13.03431988
1 -4.761187553 61.87522125 -13.71733761
3 -6.044570923 62.81025696 -13.5657959
1 -7.179560661 59.33386993 -13.56468964
3 -8.036593437 60.40401459 -14.27263546
1 -9.849758148 56.78105545 -13.46649456
3 -10.36918736 57.21380234 -14.61471748
1 -12.65868378 54.9133606 -12.96884918
3 -13.2831316 56.02412033 -12.39369583
1 -15.08483124 52.82932281 -12.65883732
3 -16.1514492 53.92391586 -12.42479134
1 -18.16867828 50.46169281 -12.45537949
3 -18.97960281 51.19249725 -13.44536686
1 -21.34567451 47.88341141 -12.00268841
3 -21.63070488 47.97506332 -13.40235424
1 -24.31854439 45.62601471 -11.41178608
3 -23.75611877 44.74474716 -12.82721806
1 -27.91135216 42.662323 -10.75482655
3 -26.87101746 41.19425583 -11.30970287
1 -30.10734177 40.75275803 -10.45813847
3 -29.10564613 39.45254898 -10.18999577
1 -32.58247757 38.45901871 -9.84649086
3 -31.64839554 37.765522 -8.903051376
0 -35.76091766 35.47140503 -9.216673851
2 -34.88234711 34.5412178 -8.315171242
0 -42.85200882 15.72010326 4.631658077
2 -42.8276062 14.265625 5.300842762
1 -47.27308655 15.67194271 6.219193459
3 -46.76618195 14.98038483 7.855779171
1 -50.54967499 15.55548763 7.29727459
3 -50.11642075 15.86720371 8.945866585
1 -53.59317017 15.53253841 8.80842495
3 -53.10061264 16.41798019 9.55507946
1 -56.62871933 15.57382107 10.17873669
3 -56.51587296 16.94367409 10.63454342
1 -60.192379 15.34078312 11.65676117
3 -60.34640121 16.84650803 11.0193615
1 -63.58423615 15.34007359 13.16927147
3 -64.17848206 16.32434082 12.1055851
1 -67.3613205 15.20135498 14.73772907
3 -67.9756546 15.24117184 13.37994194
1 -70.85603333 15.14642811 16.49757767
3 -71.27725983 14.47848988 15.28139591
1 -73.85024261 15.02506065 17.77768898
3 -73.75119019 13.88992214 16.96530724
1 -76.52015686 14.91145134 19.11765289
3 -76.09933472 13.39447689 19.2478981
1 -79.77490234 14.33283234 21.05804253
3 -79.2092514 13.29843807 21.81665421
1 -83.53958893 13.96586609 22.53630829
3 -82.94111633 13.44826889 23.75034142
1 -86.90837097 13.70798874 23.62723351
3 -87.29530334 14.87372684 22.67988014
1 -90.03164673 13.12448025 24.41936874
3 -90.40766907 13.59748173 23.29471016
1 -93.50736237 12.45519066 25.21445274
3 -93.63828278 11.89612103 23.59895515
1 -97.51916504 12.26171303 25.76481056
3 -97.56735992 11.47493458 24.41225433
1 -101.1990433 11.79861927 26.11209679
3 -101.1150742 10.64216137 25.34463501
1 -104.639801 10.8206749 26.50321198
3 -104.4927979 9.518795967 26.39022446
1 -108.0686035 10.13830376 27.03218651
3 -107.6006546 9.092603683 27.83287811
1 -111.7550888 9.235866547 26.88363457
3 -111.7954407 8.577076912 28.27063942
0 -116.3768234 8.944339752 26.50973129
2 -116.4827194 9.396615982 27.72335052
0 -11.87934494 -4.856209278 -103.1558762
2 -11.35513306 -6.332404137 -102.9180603
1 -14.98693371 -5.286783695 -99.9776535
3 -13.85173416 -5.781691074 -99.01044464
1 -16.70860672 -5.890657425 -97.58325958
3 -15.30437183 -5.29818964 -96.77310944
1 -18.86954117 -6.688172817 -94.56491089
3 -18.24537659 -5.464565754 -93.71057129
1 -21.4183197 -7.417575359 -91.37065125
3 -21.42247391 -5.878834724 -91.0167923
1 -23.4426651 -7.770152569 -88.11322784
3 -24.10132408 -6.697031975 -88.30039978
1 -24.8049202 -7.879918098 -85.00349426
3 -25.8296032 -7.405249596 -85.68664551
1 -26.71899033 -7.652465343 -82.16514587
3 -27.91255379 -8.000115395 -82.73975372
1 -28.75187302 -7.111624718 -78.97177887
3 -29.51782417 -8.459543228 -79.40028381
1 -30.49447441 -7.39207983 -75.83378601
3 -31.0128212 -8.735485077 -76.07582092
1 -31.75381279 -7.847327232 -73.04029083
3 -31.37721252 -9.185059547 -73.06336975
1 -33.36311722 -8.215691566 -69.42879486
3 -32.34649658 -9.084038734 -69.01648712
1 -34.46360016 -8.253346443 -66.9082489
3 -33.05796051 -8.530353546 -66.23431396
1 -36.01301575 -8.596460342 -63.40811539
3 -34.78588104 -8.213539124 -62.78126907
1 -37.10799408 -8.691738129 -60.30078125
3 -36.16292191 -7.45333004 -59.80664062
1 -37.49629211 -8.836688995 -56.27649307
3 -37.31669617 -7.51696682 -56.10554123
1 -38.2987709 -8.677130699 -52.30750275
3 -39.02449799 -7.109924793 -52.32261658
1 -38.95780945 -8.50861454 -48.39526367
3 -40.3589592 -7.875137806 -48.86352921
1 -39.73097992 -8.354420662 -44.62189865
3 -41.36626816 -8.316738129 -44.94758224
1 -40.32783508 -7.882234097 -40.48538208
3 -41.4393425 -8.92115593 -40.78314972
1 -41.38595581 -8.05441761 -37.3791275
3 -41.82140732 -9.680186272 -37.53263855
1 -42.12712097 -8.546812057 -33.89719391
3 -41.71863937 -9.851631165 -34.18363571
1 -42.91687393 -9.338485718 -30.70994949
3 -41.84220886 -10.18157673 -30.61626434
1 -43.40880966 -9.943401337 -27.22751427
3 -42.03060913 -10.08758259 -27.06723022
1 -43.49487686 -11.31744385 -24.29416847
3 -42.12727737 -10.50945854 -23.7079258
1 -43.409832 -12.74570084 -20.90742111
3 -42.83438873 -11.51711845 -20.52759552
0 -43.36617661 -14.46047878 -17.07536888
2 -43.76433182 -13.01726627 -16.55490112
0 -25.35199928 3.800605774 101.4475327
2 -23.97611427 3.455678701 101.029213
1 -26.45458221 3.886133194 97.06200409
3 -25.23239136 2.684252501 96.87042999
1 -27.20642662 3.849545717 94.04772186
3 -27.22462654 2.463286638 94.03220367
1 -28.06566238 3.415309191 90.95740509
3 -28.87768173 2.127878666 91.44192505
1 -28.60159111 2.658727884 87.84310913
3 -30.16894913 2.229686022 88.29545593
1 -29.58892822 1.752390862 84.39187622
3 -31.10886765 2.096855164 84.57665253
1 -30.64694595 1.231604457 80.67319489
3 -31.75067139 2.544893503 80.79989624
1 -31.24274445 1.038994908 76.80410004
3 -31.38721657 2.835576534 76.62820435
1 -31.83049583 1.212087154 73.46530151
3 -31.12548447 2.53884244 73.45446777
1 -32.19959259 1.274053574 70.7131424
3 -30.69120979 1.700865626 70.29728699
1 -32.61678696 0.6771094203 67.7755661
3 -31.21508598 0.5306500793 67.62477875
1 -33.24286652 0.5704733133 64.19038391
3 -32.57574463 -0.8465126157 64.06502533
1 -34.16664124 -0.2155081481 60.88914871
3 -34.21246338 -1.549712777 61.20742798
1 -35.06772232 -1.043591619 57.27318954
3 -36.09515762 -1.939432621 57.8473053
1 -35.53962326 -2.109699726 53.77923584
3 -37.19064713 -2.594918966 53.939785
1 -36.26397324 -3.624081612 49.626297
3 -37.57868958 -3.089978933 49.55367279
1 -36.5850563 -4.671432018 46.29433441
3 -37.53327942 -3.471476793 45.88971329
1 -36.70105743 -5.717022896 43.32764816
3 -36.76118088 -4.283521652 42.76143646
1 -36.97378922 -6.960895061 39.61207199
3 -36.06554031 -5.660570145 39.36520767
1 -37.0384903 -8.053835869 36.43877029
3 -35.68784714 -7.558242321 36.29966736
1 -36.94855499 -9.049468994 33.2909584
3 -35.74010468 -9.401561737 33.57427979
1 -36.47845459 -10.05179691 30.29486465
3 -35.52991486 -11.34181786 30.81156349
1 -36.24985123 -11.27129459 26.53319931
3 -36.57331467 -12.75287056 27.2667408
1 -35.92049789 -12.49785995 23.11787987
3 -36.88204193 -13.74646664 23.30794716
1 -35.98736954 -13.86674595 19.69349861
3 -37.46172714 -14.17752934 19.95693016
1 -35.96051025 -15.15662003 16.39652634
3 -37.34299469 -14.59826851 16.37592125
0 -35.95081711 -16.44666862 12.52642632
2 -36.32964325 -15.08887005 12.18511581
0 6.285825729 -6.260608196 -110.3307495
2 6.197065353 -4.565798283 -109.7904205
1 6.88946104 -7.704302788 -105.3296814
3 5.738446712 -6.916017532 -105.0162125
1 7.431002617 -8.98388958 -101.7563171
3 5.944873333 -8.933594704 -101.2694397
1 8.311222076 -9.948699951 -98.4948349
3 6.938495159 -10.65859795 -98.13826752
1 9.066997528 -10.68563461 -95.55693054
3 8.484857559 -11.97759533 -95.51859283
1 9.50210762 -11.83854485 -91.73734283
3 9.330767632 -13.23484135 -91.93321991
1 10.17353535 -12.6176424 -87.63330078
3 11.14848614 -14.07947445 -88.1558609
1 10.66750813 -13.2820015 -84.60783386
3 11.94023609 -13.74667454 -84.69586945
1 11.07789421 -13.58713818 -81.16106415
3 12.5457859 -13.36386967 -81.18136597
1 11.46645355 -14.19286919 -78.08945465
3 10.57333183 -15.62525654 -78.27387238
1 11.75523186 -14.82534885 -74.95767212
3 11.84538364 -16.42828751 -75.13243103
1 12.65149689 -15.78340054 -71.29577637
3 13.77466202 -16.73250771 -71.84666443
1 13.2514925 -16.69412804 -68.11367798
3 14.56724167 -16.76623726 -68.3874054
1 13.84992409 -17.23680115 -64.33618164
3 15.1610508 -16.39833641 -64.68810272
1 14.92346478 -18.03553963 -60.57161713
3 15.38516521 -16.65059853 -60.25214386
1 16.1390934 -18.66714096 -57.84959412
3 15.84432697 -17.37033081 -57.36022949
1 17.48315048 -19.60007858 -55.0843811
3 16.38856506 -19.02172852 -54.14652252
1 18.9461937 -20.28526878 -52.37536621