0 43.47856903 -32.63153839 18.73831177
1 35.15270233 -35.01557159 31.35103035
1 24.84283257 -31.65511894 42.77662659
1 13.89590359 -26.60985565 52.25455856
1 2.208440542 -23.51526451 61.32997894
1 -9.587791443 -18.87726974 70.00654602
0 -18.79954338 -14.82662201 80.72170258
2 94.9945755 20.8296032 35.30727386
0 83.42177582 19.45637321 24.95421028
0 72.50222778 22.14748192 19.1060276
0 60.23085785 24.81203842 12.8110199
0 46.88602829 29.78694153 7.220068932
2 34.04447937 34.45882034 1.074389458
0 -9.345898628 25.67689323 93.88270569
1 -15.48856735 27.15655899 81.91564941
1 -23.46048546 28.90251923 70.0827713
1 -30.26251984 32.12639999 56.00902557
1 -31.46178055 35.08739853 42.5113945
1 -34.70627213 33.55416107 28.91054916
0 -37.58729172 36.2498436 14.76800156
2 -5.920212269 -99.58365631 4.244717121
0 0.7174555063 -86.54007721 5.041682243
0 10.74167824 -74.45100403 4.217695236
0 20.3729744 -62.55222702 2.257040501
0 25.9451046 -50.59935379 0.5103678703
2 33.67646408 -39.60975647 -4.947181702
0 34.37446594 1.146054268 -109.7987213
1 32.28211975 1.024039507 -94.72264862
1 31.08838272 2.84509325 -79.84778595
1 31.96124458 5.210853577 -64.56195068
1 33.12944031 9.320414543 -49.80106354
1 33.31967545 14.43934822 -35.82778168
0 32.12249374 20.87444687 -22.68822479
2 40.22880173 -7.382035732 -5.773201942
0 52.62965775 -10.91802788 1.259827375
0 64.56282806 -12.29455757 6.101119041
0 76.07397461 -12.11517525 12.6469574
0 89.42948914 -8.302065849 16.77629471
2 101.3712692 -5.878603935 23.56456757
2 -117.6835632 -0.2987147868 15.55861664
0 -106.4402771 -7.415194988 10.00111485
0 -93.78305054 -12.75298595 8.11295414
0 -80.6786499 -17.66213036 8.195715904
0 -67.82262421 -21.71244812 8.194765091
2 -54.40148163 -24.6930294 11.80014324
2 -35.94638824 -34.73635101 7.346050262
0 -28.52857399 -45.70172882 1.788700819
0 -22.40252113 -56.15265656 -6.313886642
0 -16.84692192 -68.14191437 -12.63688374
0 -9.683172226 -80.50347137 -19.4970665
2 -3.652627707 -92.38608551 -22.41657448
2 29.88859558 85.99406433 3.896332502
0 22.30570793 73.62661743 1.937691092
0 16.08111191 61.15629959 -1.414174199
0 13.08973122 47.35518265 -7.248019695
0 10.90165424 32.90025711 -9.67311573
2 10.22113609 18.88389206 -9.44351387
0 17.41988373 29.71021461 9.122929573
1 17.5636158 29.39690781 23.03862381
1 15.33549976 23.06005859 36.76005554
1 16.84162903 17.42728615 51.31199265
1 15.99165535 9.935977936 63.80675507
1 10.31671906 7.412019253 77.54476166
0 2.590036631 2.691696405 88.59227753
0 -23.83958435 17.00306702 -24.80036354
1 -20.08821678 16.15581894 -38.91483307
1 -14.25895119 16.23909569 -50.83815002
1 -6.509311676 14.03280258 -63.14653015
1 -0.3992758393 11.02880001 -77.08131409
1 3.988412857 9.158852577 -92.11103821
0 5.496103287 7.881071091 -106.8657913
2 15.79979897 85.50029755 -7.134531021
0 5.237052441 73.81203461 -6.902044773
0 -5.579015732 63.81544876 -6.73030901
0 -17.51886368 55.94402313 -5.511774063
0 -30.03303528 50.28149033 -9.499055862
2 -39.57404709 40.80490112 -15.46999836
2 -39.32595062 9.358447075 8.661541939
0 -51.96411133 12.64633465 14.4911499
0 -66.48459625 13.48694515 19.3251133
0 -80.27554321 11.99976349 22.85095024
0 -93.62776947 10.78121471 26.87208366
2 -107.5004349 9.677570343 29.00217438
0 -22.59854507 0.4166525006 -101.4486389
1 -23.15408707 -2.027927876 -86.8613739
1 -26.88431931 -4.278941631 -72.31008911
1 -31.00485039 -7.869548798 -59.46858597
1 -32.88947678 -10.39936638 -45.6814537
1 -34.99103928 -13.65502644 -31.15122604
0 -32.30790329 -22.13876534 -18.38122559
0 -33.5547142 15.94765472 96.22509766
1 -30.93206787 9.402849197 83.18567657
1 -33.06818771 2.276194572 70.40048981
1 -31.83238411 -3.461070776 57.26742554
1 -33.43528748 -7.515788078 43.45660019
1 -30.46470451 -11.4466238 29.96126366
0 -31.25492668 -13.55587578 16.88319969
0 4.283993244 -25.11382866 -112.2451096
1 8.721571922 -20.84763718 -98.62704468
1 12.94901752 -20.13552856 -84.2747345
1 17.15680504 -20.04148674 -70.03695679
1 20.93960381 -18.82530594 -54.93786621
1 23.23051453 -19.10502434 -40.6212883
0 24.5248394 -23.48290825 -26.82442856
3 19.73366737 90.86975861 -7.514872551
3 -33.38747406 34.0249939 0.1906523257
3 -9.518706322 14.40699673 78.63043976
3 6.046780109 12.74397945 6.817045689
3 -123.5405807 12.80379963 18.25609589
3 -48.70029068 -10.99145508 21.48099709
3 -20.90275764 14.50975323 106.7716217
3 -27.33343697 21.61863708 7.71386528
3 -10.58648491 -105.0458984 -8.938053131
3 31.74914169 -28.08767319 4.018640995
3 -28.38016319 -3.662135601 93.79709625
3 -23.17926979 -20.47766876 5.886465549
3 98.60897827 10.10735512 24.50362206
3 33.26424789 25.8396492 3.962092161
3 -3.271520138 -2.667550564 86.93767548
3 41.21863556 -19.55295181 8.64941597
3 106.2847748 10.09519672 34.70845795
3 35.19884109 -14.1207962 -12.55158806
3 17.60164642 -9.658138275 -109.0419693
3 38.21665955 19.63396835 -10.21374512
3 16.28490067 96.99495697 8.109539032
3 18.0342083 24.01220131 -21.72686005
3 24.48906136 9.989030838 -107.4224091
3 -27.50942993 30.06338882 -27.81442261
3 -123.0105057 -1.944041371 28.0801239
3 -37.84970474 12.1522789 -10.40554047
3 -10.43758774 12.42621613 -107.5764084
3 -43.90799713 -29.08302307 -5.104036808
3 -11.0820694 -90.43733978 -6.000736713
3 -31.99477196 -29.78421593 -9.168382645
3 -10.37930202 -16.01374817 -100.9133759
3 33.22252274 -39.63301849 -25.54096985
