0 35.43692017 -25.43662834 13.04868317
2 35.26163483 -26.79441452 12.15481186
1 34.35004044 -26.6119957 17.32374954
3 35.08406067 -27.82147026 17.37063026
1 32.72048569 -27.30657005 20.17208862
3 33.97277069 -27.93585205 20.78975105
1 31.11282539 -27.94323349 22.906147
3 32.21800232 -27.95941544 23.76808739
1 29.3703022 -28.79889679 25.82244492
3 30.17325401 -27.8276577 26.53024483
1 27.00927734 -29.21385765 28.67972374
3 27.13781166 -27.90559387 28.87034416
1 24.38223457 -29.07138443 31.68859482
3 24.07090187 -27.47094727 31.10806656
1 22.38898659 -28.89808464 34.66501236
3 21.36096764 -28.0520134 33.69583511
1 20.28423882 -28.68190765 37.68019104
3 18.88966942 -28.7187748 36.7576828
1 18.75950623 -28.42183685 40.90559006
3 17.43459702 -29.32649612 40.07301712
1 17.3138752 -28.26350212 44.16999435
3 16.47779655 -29.51091385 44.114254
1 16.08378601 -28.0031395 47.81663132
3 16.09863472 -29.61762428 47.98980713
1 15.44396496 -27.55214119 51.70276642
3 16.39610672 -28.79314041 52.07349777
1 14.98727322 -27.0139637 55.31374359
3 16.49877357 -27.55231476 55.36740112
1 14.2411871 -27.03068733 58.13134766
3 15.57598495 -26.39854431 58.53400421
1 13.15818024 -27.17234039 61.48489761
3 13.95556736 -25.77654266 62.05657196
1 11.99852276 -27.08317184 64.07137299
3 12.04520512 -25.4370079 63.86483002
1 10.0596323 -26.92590714 67.62517548
3 9.399706841 -25.81907082 67.06410217
1 8.27613163 -26.60116005 69.89095306
3 7.165108681 -25.93643188 69.11331177
1 6.42514801 -25.1676445 72.59107971
3 4.841995239 -25.67352295 71.91041565
1 4.479253292 -23.25646973 75.03518677
3 3.366854668 -24.11847878 74.98497009
1 2.132307053 -21.22767639 77.81880951
3 1.510088444 -22.48290634 78.06652069
1 0.4553477168 -19.76163483 80.30569458
3 0.6675979495 -21.01343536 81.1456604
1 -1.202897072 -18.08375359 83.31098938
3 -0.108163245 -18.71469688 84.10604858
1 -2.688889742 -16.52988815 86.40278625
3 -1.338093042 -16.34010315 86.76693726
1 -4.488377094 -14.71862793 89.64967346
3 -3.297208786 -13.60521984 89.78910828
0 -6.574066639 -12.64294243 93.11386108
2 -6.271803856 -11.3007822 92.70789337
0 100.4861755 16.66638565 35.31764603
2 99.96788788 16.41053772 36.47935104
1 96.42139435 17.07727814 33.48561859
3 96.11164856 17.91260147 34.76302338
1 93.34684753 17.70193481 31.7966156
3 93.00866699 18.86533165 32.64876556
1 90.23282623 18.31986427 30.26951218
3 90.7332077 19.93105507 30.28036118
1 86.9773407 18.92728233 28.22605133
3 87.51686096 20.18384933 27.70031738
1 84.11270142 19.94122124 26.24554062
3 85.23916626 20.41767311 25.1265564
1 81.71128845 20.70746231 24.21875191
3 82.60953522 20.51291656 22.76510429
1 79.12148285 21.29358482 21.99902916
3 80.09733582 20.05840492 21.29682732
1 76.06622314 21.61421204 19.85622978
3 75.89245605 19.95649338 19.56714439
1 73.4529953 21.77073479 18.00690079
3 73.03890228 20.52772713 18.68891716
1 70.55455017 21.8419075 16.68192482
3 69.82926178 21.11653137 17.78165627
1 67.47611237 22.17806435 14.62104416
3 66.41952515 22.44319534 16.17991638
1 64.23686981 22.42962074 12.60304165
3 63.64108276 23.24023438 13.66380596
1 61.47705841 22.3885231 10.49682331
3 60.97746277 24.05535889 10.74942875
1 58.3666954 22.80648613 8.468034744
3 58.84193802 24.25731087 7.967997551
1 55.35889435 23.16197777 6.502302647
3 56.20264816 24.04096413 5.33876276
1 52.95504761 23.48399734 5.185484409
3 53.6321907 23.63250923 3.747591496
1 49.66765213 23.8021431 4.048915863
3 50.00411987 22.81383133 2.870996237
1 46.36414719 23.70640755 3.34508729
3 46.55456924 22.41965485 2.671587229
1 43.17715454 24.08427811 2.209433079
3 42.9919548 22.48218536 2.455824614
1 39.61006927 24.26954842 1.030032516
3 39.1917038 23.19360542 2.004383087
0 35.15847397 24.33974457 -0.3046635091
2 34.86220551 23.97836494 1.07747674
0 -5.825287342 19.85898399 95.6211853
2 -5.198702812 19.16246033 94.76116943
1 -6.859690666 21.61925507 92.37651825
3 -7.169759274 20.38241386 91.91886139
1 -7.688520432 23.21599007 89.72335815
3 -8.978970528 22.19538116 89.55471039
1 -8.492765427 24.58198738 87.58417511
3 -10.00125217 24.27874374 87.79385376
1 -10.09201717 26.4879055 84.42895508
3 -11.5440464 27.06936455 85.51190186
1 -11.44682312 27.99829483 81.81984711
3 -11.97594833 29.10294724 82.70711517
1 -12.92126465 29.43254852 79.163414
3 -12.43642235 30.89591599 79.58608246
1 -14.18097591 30.79712677 76.00135803
3 -13.02674389 32.12913132 76.25278473
1 -15.29084778 32.13048172 73.22544861
3 -13.64050293 32.41172409 72.60290527
1 -16.47523689 32.99924088 69.73518372
3 -15.11326694 32.4180603 68.95526123
1 -17.76145554 34.82120132 66.37304688
3 -17.24480247 33.6695137 65.81705475
1 -19.22115326 36.32952118 62.85741043
3 -19.76816368 34.87727356 62.6737175
1 -20.96239281 37.48038101 60.1666832
3 -21.77171516 36.45750809 60.29230118
1 -21.93814087 37.90611267 56.69003677
3 -23.45555496 37.63856888 57.12910843
1 -23.28651619 38.74204636 52.52199936
3 -24.60587692 39.33708191 53.12779236
1 -24.26288414 39.58070374 49.83165359
3 -24.88064766 41.05977249 50.48563004
1 -25.69236755 40.44160843 46.44012451
3 -25.42109489 41.84700012 46.56414795
1 -26.6462326 40.94957733 43.45184708
3 -25.51841927 41.90065765 42.82395172
1 -27.86043167 41.07809448 39.84602356
3 -26.41045189 41.22558212 39.20092773
1 -29.17519951 41.26639175 36.71691895
3 -28.01359749 40.64942932 36.14249039
1 -30.90693092 41.23143768 33.94920349
3 -30.19220924 40.02371216 33.75302887
1 -32.14163208 41.51865768 31.59343529
3 -32.50285339 40.11381531 31.41618347
1 -33.50993347 41.85988998 28.4048996
3 -34.71088791 40.51528549 28.86032486
1 -35.50946426 42.40768814 25.58426285
3 -36.78953552 41.94078445 26.25857735
1 -37.75572205 43.72097778 21.99661446
3 -38.91736984 44.31555557 22.81002426
1 -39.57395554 44.28676224 18.76389122
3 -40.16171265 45.66513443 19.57731056
0 -40.97081757 44.41941833 14.87838268
2 -40.46080399 45.84003067 14.84391689
0 -3.078663349 -100.1336517 10.54281521
2 -3.399154425 -100.1963348 11.79516315
1 -1.0074265 -96.65205383 10.38751984
3 -0.4174996018 -96.98899078 11.95256996
1 0.6923013926 -93.31310272 10.091856
3 1.550802231 -94.21722412 11.01659775
1 2.55195117 -90.77416229 9.801336288
3 4.048586845 -91.68956757 10.01017475
1 4.635207653 -88.13748932 9.44418335
3 6.110398293 -88.91980743 8.883882523
1 6.414800167 -84.92016602 8.786751747
3 7.100383759 -85.75727844 7.57418108
1 8.593707085 -81.75723267 8.211918831
3 8.646491051 -82.15382385 6.569204807
1 10.71300316 -78.52053833 7.332835674
3 9.917703629 -78.75921631 5.941595078
1 13.30636787 -75.44248199 6.367585182
3 12.31373882 -74.69784546 5.488143921
1 15.60540485 -73.00195312 6.328489304
3 14.51578712 -71.64219666 5.951404095
1 18.08127785 -70.86032867 6.565364361
3 17.23126984 -69.68334961 7.5160079
1 21.1894207 -68.78295135 6.602097511
3 20.44105911 -68.24930573 7.972970963
1 23.88605118 -66.05103302 6.306046486
3 23.93601799 -66.08478546 7.810248852
1 26.34762192 -63.5334816 6.193898678
3 27.02255821 -64.02806091 7.626966
1 28.54646492 -60.31732559 6.145237923
3 29.4760685 -60.9711647 6.2773242
1 30.77492523 -57.04389191 5.649996758
3 31.93959236 -57.81331253 5.281930447
1 32.35857391 -53.51213074 5.260972023
3 33.0758667 -53.95874786 4.141507626
1 34.07532883 -50.31852722 4.398996353
3 33.8836174 -50.76369095 2.864682913
1 35.46527863 -47.33309555 3.782754183
3 34.84015656 -47.18633652 2.205100536
1 36.45281982 -44.55290985 3.366251707
3 35.45586014 -44.08491516 2.277321815
1 37.84987259 -41.31145096 2.749582291
3 36.54334259 -40.81007385 2.581875086
0 39.25088501 -37.32743073 1.021566749
2 38.22426224 -36.7171936 1.953059316
0 16.23899841 8.773793221 -109.7386856
2 15.1242075 9.319419861 -108.8943329
1 18.87781525 6.885812759 -106.3914261
3 17.65725136 6.456556797 -105.5746689
1 20.99950218 5.679749966 -103.7261124
3 20.00453186 4.540821552 -103.1193924
1 22.92877007 4.832081318 -100.810791
3 22.57113838 3.638100386 -100.9461517
1 24.68535805 4.65373373 -97.82157898
3 24.85635567 2.891368151 -97.83641052
1 25.75459671 4.403271198 -95.02039337
3 26.7313633 3.096789598 -95.37195587
1 26.52924728 4.422338009 -91.02350616
3 28.10338402 4.348539352 -91.46291351
1 27.48963928 4.788850307 -88.44663239
3 28.61136818 5.226378918 -88.87322998
1 28.44681549 4.588174343 -85.99209595
3 29.34429169 6.128934383 -86.01986694
1 29.6456356 4.470750332 -82.4228363
3 29.42597961 6.029836178 -82.53270721
1 31.20889664 4.230140686 -78.67728424
3 30.11149597 5.378900528 -78.31625366
1 31.71637344 4.241299629 -74.87242126
3 30.36962891 4.513376236 -74.77055359
1 32.2909584 4.22613287 -71.31406403
3 30.91695976 3.726093054 -71.24171448
1 32.51169205 4.584127426 -67.72560883
3 31.77465057 3.379813433 -67.67462158
1 32.7418251 4.519661903 -64.03444672
3 32.80511475 3.015306234 -64.30810547
1 32.54521561 4.32413578 -59.91402817
3 33.69935226 3.023507118 -59.75985336
1 32.18632126 4.423600674 -56.79000092
3 33.66797256 3.980876684 -56.70162201
1 31.9756546 4.748084068 -53.40352249
3 33.52425385 4.999547005 -53.17066956
1 31.74892807 5.288184166 -50.16644669
3 33.05037689 6.109259605 -50.35187531
1 31.6214695 6.315248966 -46.88207245
3 31.9907608 7.613763809 -47.28042603
1 31.59086418 7.503542423 -43.41947937
3 31.2821846 8.961772919 -43.87373352
1 31.41630936 8.870293617 -40.24894333
3 29.89852142 9.942346573 -40.77724457
1 30.96469498 9.993451118 -37.01342392
3 29.43932343 9.91621685 -37.37238312
1 30.73625755 10.90330601 -34.10773087
3 29.53900146 10.29306507 -33.94438553
1 30.16015625 12.06427574 -30.56676102
3 29.51612091 10.62247276 -30.43390465
1 29.48509026 12.44507217 -27.79788971
3 29.48204041 11.00457287 -27.45702934
0 28.75502205 13.05394459 -23.79059982
2 29.91847229 11.92992592 -23.33831596
0 36.37464905 -9.346985817 -2.773811102
2 36.73154449 -8.266000748 -3.901268005
1 41.13850403 -9.635105133 -1.760774374
3 41.55651855 -8.513370514 -2.075073719
1 44.19205093 -9.32734108 -0.5546734333
3 44.25449753 -7.881399632 -0.0529512167
1 47.93282318 -8.902083397 1.282405496
3 47.11316299 -8.132780075 2.438087225
1 51.13134766 -8.461267471 2.917355299
3 50.44315338 -8.224991798 4.272241116
1 54.36305618 -7.881231785 4.139560223
3 53.88961792 -8.619357109 5.31186676
1 57.23655701 -7.595738888 5.587600231
3 57.13637543 -8.932608604 6.429621696
1 60.23160172 -6.885631561 7.524430275
3 60.62082291 -8.480005264 7.46562624
1 62.6725769 -6.4420228 8.442412376
3 63.40336227 -7.536625385 7.977900982
1 65.31434631 -5.588737488 9.885721207
3 65.94474792 -6.134253979 8.54113102
1 68.4618454 -4.220257759 10.76240253
3 68.97303772 -4.466526031 9.296648979
1 71.80262756 -3.16078639 11.28730583
3 71.62922668 -2.463887215 9.923130035
1 75.22997284 -1.877634406 12.09918499
3 74.98066711 -0.5202155113 11.26005936
1 78.91173553 -0.05936310068 12.25012684
3 78.33010864 1.083301783 12.41435146
1 82.00276184 1.404780984 12.79660034
3 81.08159637 2.568186998 13.78787804
1 84.91326141 2.991168499 12.85000515
3 84.41153717 3.395287275 14.5041647
1 87.55188751 4.977636337 13.4017601
3 87.60263824 4.661941528 14.98835182
1 90.13217926 7.07013607 14.19757366
3 90.70781708 6.191365242 15.02732563
1 92.98989868 9.636364937 14.85877419
3 93.91725922 8.267587662 15.25434303
1 96.15219116 11.98423672 15.70615959
3 97.27336884 10.97759438 15.11286354
1 99.0509491 14.18792915 16.28885078
3 99.72694397 13.48065472 15.02364635
0 102.8104858 16.29925156 17.94186401
2 103.2175522 16.75105858 16.35210228
0 -114.7855988 -3.065950394 21.17242622
2 -114.9962769 -3.231050968 19.71160507
1 -110.0018387 -3.89159584 19.49146652
3 -109.8706207 -3.061173201 18.37298775
1 -106.9073639 -4.572278976 18.58257866
3 -106.8500061 -3.14954257 18.08633995
1 -103.8395233 -5.089844704 17.28327751
3 -103.5762787 -3.651415348 17.7513485
1 -100.8813553 -5.510685921 16.35321999
3 -100.339859 -4.575558662 17.13625717
1 -97.13082886 -5.137029171 14.91605473
3 -96.38926697 -5.053083897 16.28244972
1 -94.38215637 -4.743226051 13.46679974
3 -93.97071838 -5.648174763 14.58141708
1 -91.19142914 -4.329116344 12.91749477
3 -91.1536026 -5.843254566 13.23949718
1 -88.03302765 -4.313267231 12.60824203
3 -88.10935974 -5.717304707 12.10072422
1 -85.37555695 -4.286858559 12.15250111
3 -85.70526123 -5.203455925 10.77783203
1 -82.09938049 -3.990034819 11.52795219
3 -82.40704346 -3.755784273 9.711679459
1 -79.21229553 -4.147979259 10.89124012
3 -79.19595337 -3.09194088 10.16018677
1 -75.98733521 -4.691401005 9.948574066
3 -75.49227142 -3.363135099 9.855251312
1 -72.52207184 -5.480619431 8.789681435
3 -71.78038788 -4.326993465 9.382541656
1 -69.74144745 -6.316271305 7.576203346
3 -69.14624786 -5.961945534 8.899691582
1 -66.04928589 -6.855021477 6.360114574
3 -65.85382843 -7.427574158 7.547301769
1 -63.05747986 -8.079916 4.707664013
3 -62.9662056 -9.124503136 5.510034084
1 -59.78791809 -9.590597153 3.466214657
3 -60.60266113 -10.96991062 3.655113459
1 -57.14142227 -11.59017944 2.718214512
3 -58.02989197 -12.63076496 2.033651352
1 -54.81587982 -13.24429607 1.940975904
3 -55.63890076 -13.68923473 0.7190203071
1 -52.86195374 -15.54352283 1.055118561
3 -53.27880478 -14.94735909 -0.2358122319
0 -49.18144608 -18.37047195 -0.8524917364
2 -48.6688385 -17.01869965 -1.796383977
0 -25.85054207 -25.02058983 -16.67965889
2 -25.86985779 -25.30208206 -18.02173805
1 -25.42603111 -29.90967751 -16.7913456
3 -24.37569237 -29.54366684 -17.89154625
1 -25.02136803 -33.52003098 -16.78355217
3 -23.53407669 -33.2125206 -17.26432991
1 -24.16226387 -37.19829941 -16.93273544
3 -22.88922882 -36.97495651 -16.3692131
1 -23.44106483 -40.74599838 -16.68963242
3 -22.3828907 -40.45378113 -15.62617588
1 -22.81599045 -44.52122498 -16.77648163
3 -22.71605873 -44.48843002 -15.28783321
1 -22.27565575 -47.8801384 -16.95139122
3 -23.00694466 -48.01652527 -15.59408379
1 -21.74620438 -51.48150635 -16.54150009
3 -23.07042313 -51.63380432 -16.1128273
1 -20.98186874 -55.46915817 -16.69274521
3 -22.58235741 -55.74119949 -17.08063507
1 -20.3125782 -58.95336533 -16.46242332
3 -21.35820007 -59.20508957 -17.58431816
1 -19.73351288 -62.36076736 -16.49569702
3 -19.83745575 -62.32516098 -18.07284164
1 -18.75962067 -65.79555511 -16.63925552
3 -18.16913605 -65.85578918 -17.84413147
1 -17.74540138 -68.80453491 -16.49504471
3 -16.36381912 -68.59500122 -17.32439041
1 -16.39604187 -71.63517761 -16.46007538
3 -15.23397541 -71.31587982 -16.22967529
1 -15.03872013 -74.65675354 -16.33107567
3 -13.98980045 -74.30002594 -15.38111305
1 -13.81968307 -77.90986633 -16.16864586
3 -13.44926453 -77.71260834 -15.00461769
1 -12.79927063 -81.73902893 -16.0080719
3 -12.90992832 -81.6138382 -14.16243267
1 -11.51084709 -84.73830414 -14.99129963
3 -12.62497234 -84.94961548 -13.98923874
1 -10.26206589 -88.02082062 -13.96849251
3 -11.53882313 -88.49489594 -13.16514969
1 -8.708120346 -91.04410553 -12.98569202
3 -10.1160059 -91.64787292 -13.0036087
1 -7.089074135 -94.14517975 -11.83530426
3 -8.211379051 -94.76048279 -12.74025822
0 -5.858854771 -98.22375488 -9.535759926
2 -5.892830372 -98.9805603 -10.74531746
0 26.21264648 94.0320816 -0.1462143809
2 27.14015388 93.6215744 0.8205384612
1 25.71264648 90.492836 -2.105200529
3 25.78030968 89.80287933 -0.3496094942
1 25.32439995 87.35306549 -3.424467087
3 24.64921188 87.0801239 -2.29845047
1 24.73290825 83.84201813 -4.802064896
3 23.31603432 83.87240601 -4.507546902
1 24.14541626 80.78361511 -6.253418446
3 22.69468307 80.95581055 -6.756426811
1 23.80460167 76.99489594 -7.532020569
3 23.03055954 77.54663086 -8.876691818
1 23.48263741 73.18873596 -8.455507278
3 23.2556324 73.38279724 -9.945167542
1 22.70063782 69.48310852 -8.985401154
3 23.54613495 69.55817413 -10.46486855
1 22.09059906 66.1169281 -9.182003021
3 23.77252007 65.96025848 -9.555693626
1 21.23693275 63.06480789 -9.34297657
3 22.65786934 62.75452423 -8.544740677
1 20.42343712 59.21247482 -9.445272446
3 21.09155273 59.05641556 -8.046495438
1 19.80303192 54.99382401 -10.03680897
3 19.44429016 54.94444656 -8.50135231
1 19.02132225 51.82766342 -10.75059032
3 17.67273331 51.97228241 -9.91230011
1 18.23403931 48.59411621 -11.68740273
3 16.87579155 48.81843567 -11.59510517
1 17.25160217 45.1541748 -12.3772831
3 16.03458214 46.04437637 -13.43048
1 16.51354218 42.1890831 -12.98429489
3 16.42575455 42.55786133 -14.42498875
1 15.44370651 39.15214539 -14.00294685
3 16.10746574 39.04430771 -15.11422443
1 14.3836422 36.09526443 -14.25384426
3 15.54193592 35.7349205 -15.0279541
1 13.51804543 33.15384674 -14.46395874
3 14.75319004 32.78023148 -13.99253464
1 12.38656998 29.14535713 -14.0480814
3 13.35814667 28.98837662 -13.15274143
1 11.71406269 25.3573761 -13.86378384
3 11.93246269 25.33501625 -12.50937366
0 10.89541531 20.9464798 -13.85293102
2 9.753325462 21.19352341 -12.57415962
0 21.24987221 15.92959118 9.450057983
2 22.62858582 15.45692539 9.437802315
1 20.98902893 16.10692978 13.31500912
3 22.3759346 16.67893982 12.8859663
1 21.0191021 15.98711586 17.02329445
3 21.38279343 17.29807281 16.95412445
1 20.59743309 16.06976128 20.58868599
3 20.58193207 17.63372612 20.60653877
1 20.95279503 15.73823452 24.3308773
3 20.07877541 17.03167915 24.15084839
1 20.97138977 15.65387344 27.80364037
3 19.71876907 16.2847271 27.94304085
1 21.16524124 15.81695461 31.18463135
3 19.53209114 15.49062443 31.07083321
1 21.13974953 16.07420921 34.38605118
3 20.25751686 14.91132259 34.43955994
1 21.12395859 16.51140594 37.50845718
3 21.09078217 14.77171707 37.75513077
1 21.22481918 16.63280487 40.14656448
3 21.99707222 15.09190083 40.47807312
1 21.08140564 16.60988808 43.80467606
3 22.60358429 16.0502491 43.70286942
1 20.90858078 16.33373642 47.26655579
3 22.52176666 17.00852966 47.02591705
1 21.12627411 16.15151978 51.4024086
3 21.76943398 17.47182846 51.45722961
1 20.71118164 14.84858418 55.46578598
3 20.6967144 16.29685783 55.97753525
1 20.05620956 14.16519356 58.52082443
3 19.13509369 15.41846657 58.62540054
1 19.08073425 13.06067085 62.31515884
3 17.64218712 13.60063934 61.91268539
1 17.95196724 11.95828724 65.73707581
3 16.59259605 11.74579144 65.46456909
1 17.03954124 11.05444241 69.27966309
3 15.79714394 10.24685383 68.78648376
1 15.87193298 10.70353603 72.71833038
3 15.44402599 9.172197342 72.33062744
1 14.34174919 9.780138016 76.56270599
3 14.53633881 8.565716743 76.16647339
1 13.24795628 8.709756851 80.09364319
3 13.88701344 7.624969006 80.1920929
1 12.09964561 7.887425423 83.1687851
3 13.5132122 7.394015312 83.66783142
1 11.11594772 6.883390427 86.45949554
3 12.1931839 6.998466969 87.14731598
1 9.984851837 5.960285664 89.40292358
3 10.73001003 7.238385201 89.86380768
1 8.467470169 5.389881134 92.7852478
3 8.250360489 7.083116531 93.03676605
1 6.882864475 4.653529167 96.29019165
3 6.027572632 5.674816132 96.02731323
0 4.148245811 3.901587963 100.1162262
2 2.643002033 4.128057003 99.57727814
0 -27.32779121 19.59214973 -8.804388046
2 -26.32835579 21.0103817 -8.699661255
1 -25.7041111 18.40037155 -12.22556686
3 -24.41401863 18.75049782 -11.63639832
1 -23.89261055 17.65155029 -15.09678841
3 -22.32846642 17.01624489 -14.20887661
1 -22.05858421 16.67443275 -18.47023582
3 -21.02575302 15.61253548 -17.81604195
1 -20.43136597 16.16065979 -21.79418945
3 -20.39560509 14.55233002 -21.42278862
1 -18.88573647 15.80760479 -24.45855522
3 -19.1726265 14.58463383 -24.45606613
1 -17.24375153 15.43412781 -27.52510834
3 -18.3389225 14.74125195 -28.33633232
1 -15.82739544 15.20804119 -30.5022316
3 -17.54714394 15.46330452 -31.10369301
1 -14.9308033 15.04616261 -33.44886017
3 -15.94429302 16.15423393 -33.59643936
1 -13.79677486 15.40191841 -37.12255096
3 -13.64530182 16.80068207 -37.24555588
1 -12.52772427 15.80105114 -40.74177933
3 -11.97394848 17.31581497 -40.21117783
1 -11.55081558 16.2217617 -44.30543518
3 -10.41327572 16.92176056 -43.7779541
1 -10.80314255 17.03899574 -47.49304581
3 -9.58926487 17.21529388 -46.96052551
1 -10.3105154 17.52402687 -51.05282593
3 -8.787114143 16.5813942 -50.67051697
1 -9.334427834 17.92414856 -55.05484009
3 -8.651385307 16.62591934 -54.92847061
1 -8.45437336 18.41620064 -58.68658066
3 -8.432437897 17.06385231 -58.6826973
1 -7.083331108 18.5153904 -62.6160965
3 -7.911414623 17.22196579 -62.98656082
1 -5.642392635 18.2878418 -66.17355347
3 -7.029628754 17.8645649 -66.64394379
1 -5.008795738 18.47774124 -69.54238892
3 -6.548201561 18.96734238 -69.80496216
1 -4.424336433 18.47340775 -72.61174774
3 -5.364699841 19.4673233 -72.914711
1 -3.710633755 18.42521858 -76.58544922
3 -4.090209484 19.5235672 -76.77631378
1 -3.231417179 18.37066269 -80.07093811
3 -3.155979872 19.88918686 -79.71727753
1 -2.815354586 18.42178154 -83.55570984
3 -2.108934879 19.84285355 -83.50255585
1 -2.463735104 18.35050583 -87.09235382
3 -1.35564208 19.21948242 -86.91856384
1 -1.517014146 18.29557991 -90.68193817
3 -0.0836757198 18.41313362 -90.26828003
1 -0.2934064865 18.36304283 -94.021698
3 0.8265182972 17.62565041 -93.45777893
0 1.479707718 18.68229485 -98.08992004
2 1.828830481 17.12545586 -97.89463043
0 12.39332294 97.92321014 -11.82205391
2 11.24283028 98.66314697 -12.50324249
1 10.00463772 92.92208862 -12.13780785
3 9.463920593 93.69036102 -13.52503109
1 8.655972481 89.89054871 -12.84037971
3 8.608736038 90.08031464 -13.96930218
1 6.978658676 86.48873901 -13.42724991
3 7.820713043 86.44387817 -14.87105465
1 5.634850502 83.89098358 -13.60445023
3 6.974104881 83.79698944 -14.44077301
1 4.156004429 80.88672638 -14.32803249
3 5.450493336 80.2593689 -14.56832027
1 2.306466341 77.11562347 -15.14855671
3 3.304699898 76.41307068 -14.53701401
1 0.6834239364 74.16017151 -15.33156013
3 1.220680833 73.72245026 -14.10444832
1 -1.409981847 71.59155273 -15.66593075
3 -1.459463596 71.25204468 -14.03235435
1 -3.897195578 68.45436096 -15.90125942
3 -4.385799408 68.91313934 -14.6574173
1 -6.013763905 65.54084778 -16.06269836
3 -7.089426517 66.1109314 -15.20205402
1 -8.138688087 63.08951187 -16.16648102
3 -9.356628418 64.14805603 -16.25467873
1 -10.64741135 60.35589218 -16.00115967
3 -11.40433407 61.17915726 -16.65804291
1 -13.5446167 57.7684288 -15.29102039
3 -14.26833725 58.09916687 -16.54016685
1 -16.40718269 55.1518898 -14.62757587
3 -16.77224922 54.93338776 -16.31475258
1 -19.23905945 52.51330948 -13.87615871
3 -18.95237923 51.87766647 -15.16081524
1 -22.42245483 50.26059723 -13.25735188
3 -21.6130619 48.89339066 -13.97578907
1 -25.56789207 48.6544342 -12.08445644
3 -24.4372673 47.20444489 -12.22323895
1 -28.13091087 46.71295166 -11.24659443
3 -27.21746826 45.8623085 -10.32949257
1 -31.2852478 44.91542053 -9.875705719
3 -30.58066559 44.64131927 -8.71658802
1 -34.48578644 43.37118149 -8.084610939
3 -34.10548401 44.05033112 -6.760357857
0 -38.73571014 42.05970001 -6.311893463
2 -38.66463852 43.29578018 -5.400849819
0 -43.18195343 17.99491501 13.01796913
2 -42.55042267 16.75364494 14.00111103
1 -47.76239014 18.13202095 14.6183567
3 -47.03833771 18.16441345 16.21261215
1 -51.43675232 18.09087372 15.64808464
3 -51.33998489 19.18842506 16.93959808
1 -54.5401268 17.35327148 16.48743248
3 -55.00435257 18.8713932 16.70666504
1 -57.81329346 16.26997757 17.48754692
3 -58.20930099 17.63933182 16.9570713
1 -61.77001572 15.34046459 18.9174633
3 -62.35686493 16.03407288 17.82445908
1 -65.11907959 14.30580235 20.34693527
3 -65.93890381 14.43656063 18.97674942
1 -68.14976501 13.93454361 21.7080574
3 -68.59493256 13.12946606 20.46243668
1 -71.71559906 12.99730015 23.25305557
3 -72.02279663 11.85948658 22.52436066
1 -74.28314209 12.32386112 24.46120262
3 -74.10527039 10.74367809 24.52921486
1 -77.75543976 11.53366947 25.88744545
3 -77.35756683 10.28376102 26.93463516
1 -81.03013611 11.06245804 26.85927963
3 -80.66116333 10.65971565 28.25042725
1 -84.58457184 9.869264603 27.93430328
3 -84.38923645 10.53518486 29.37414169
1 -88.13864136 9.288860321 28.95451164
3 -88.11697388 10.70699501 29.50186539
1 -91.52695465 8.974714279 30.10612869
3 -91.80756378 10.56982708 29.80477142
1 -95.13336182 8.651866913 31.051157
3 -95.45040131 9.942593575 30.29740524
1 -98.28052521 8.128804207 32.16558075
3 -98.96620178 7.969903469 31.00984383
1 -101.6471863 7.209164143 33.67197418
3 -102.2806778 6.302847385 32.27415466
1 -104.6080475 6.082354546 35.64898682
3 -104.194397 4.722304344 34.86271667
1 -107.6478195 4.558622837 37.13396835
3 -106.900383 3.155541182 37.32463074
1 -110.8775101 2.920698643 38.47834778
3 -109.9375687 2.012030125 39.51709747
0 -114.2044678 0.5744403601 39.48942947
2 -114.2761841 0.5791435242 41.08298111
0 -15.14715481 6.773808002 -99.53627777
2 -13.92511559 5.800942421 -99.03586578
1 -17.47374344 6.884465218 -96.31109619
3 -16.20175934 6.905158997 -95.46617126
1 -19.75478363 7.222507477 -93.60035706
3 -18.76389313 8.387252808 -92.87439728
1 -22.31108475 7.411315918 -90.36955261
3 -21.94893074 8.796951294 -90.21821594
1 -23.87907982 7.584849834 -88.21613312
3 -24.24723434 8.967060089 -88.47846985
1 -25.59038734 7.425033569 -85.44937134
3 -26.76936722 8.167413712 -86.13934326
1 -27.4753933 6.705200672 -82.50611115
3 -29.0568161 6.915657043 -83.22065735
1 -28.82263756 5.996106625 -79.7362442
3 -29.83630371 5.108562946 -80.39129639
1 -30.27650642 4.751412868 -76.82590485
3 -30.51169205 3.638576269 -77.55410004
1 -31.29790306 3.654927254 -74.1214447
3 -30.75618553 2.23084569 -74.34281158
1 -32.52863312 2.637173414 -70.69519043
3 -31.55532837 1.398209453 -70.48497772
1 -33.63952255 1.518836379 -67.45793915
3 -32.1973114 1.322079301 -67.15850067
1 -34.6774025 0.5151956677 -64.33535767
3 -33.45074463 1.015820265 -63.77658463
1 -35.27217865 -1.126325607 -61.50246811
3 -34.56312561 0.2782317996 -60.47408676
1 -36.13570023 -2.485818863 -58.70855331
3 -36.4221611 -0.9811844826 -58.21577072
1 -37.30253601 -4.327038765 -55.5045929
3 -38.26639938 -3.029789686 -55.24866867
1 -38.73991394 -5.787294388 -52.12410355
3 -40.2167511 -5.224095821 -52.46259308
1 -40.11075974 -7.40960741 -48.76296616
3 -41.57661057 -7.552942753 -49.33058167
1 -41.39824295 -8.520395279 -45.8836937
3 -42.33013916 -9.648963928 -46.52172089
1 -42.32538605 -9.85164547 -42.72175598
3 -42.28977585 -11.10821438 -43.56365204
1 -43.22776031 -11.15453911 -40.58414841
3 -42.50012207 -12.24563885 -40.69189835
1 -45.16491699 -12.50484657 -37.07298279
3 -43.92235565 -13.47359657 -36.9391098
1 -46.41807938 -14.04572296 -33.56170273
3 -44.95633316 -14.08076382 -33.16900253
1 -47.25988007 -14.75382423 -30.9042244
3 -46.08994675 -14.1452713 -30.22437668
1 -48.37286758 -15.06792831 -27.66172028
3 -47.65720749 -13.51438332 -27.49921036
1 -49.83287048 -15.58868408 -24.31826591
3 -50.10611343 -14.02079391 -24.19385147
0 -51.83749771 -16.07339859 -20.3077774
2 -52.88829803 -15.160676 -21.0792923
0 -20.54487991 3.4273386 97.72741699
2 -19.47536659 3.260791779 97.54272461
1 -21.31941605 3.715197802 93.6844635
3 -20.72437286 2.162426949 93.45596313
1 -22.30021286 3.936980724 90.80917358
3 -22.48075104 2.508827209 90.86468506
1 -23.57853699 3.863026857 86.4575119
3 -24.51945114 2.719314575 87.13044739
1 -25.09884834 4.072753429 82.76038361
3 -26.30944633 3.63530755 83.24200439
1 -26.20695114 3.712312698 79.86467743
3 -27.389925 4.080196381 80.36808014
1 -27.40179062 3.322897911 76.72649384
3 -28.45849609 4.38421917 76.78674316
1 -28.37891197 2.945400476 73.28586578
3 -28.82704926 4.388691902 73.11768341
1 -29.6066227 2.448348284 69.866539
3 -29.1591835 3.804361343 69.21536255
1 -30.33789253 1.885665894 66.56005096
3 -29.02752304 2.686821461 66.10810089
1 -30.86237335 1.237630725 62.864151
3 -29.1865139 1.140156507 62.33272552
1 -31.67413521 0.5924642086 59.38180161
3 -30.58093643 -0.4833639562 59.14355087
1 -31.9760704 -0.1039183065 55.54779816
3 -31.86623955 -1.469164014 55.87575531
1 -31.83277321 -1.113698125 51.67950058
3 -32.76510239 -2.391526461 52.1460228
1 -32.00840759 -2.019981623 48.71398544
3 -33.52253342 -2.363262892 49.0818367
1 -32.34741592 -3.489949703 44.71620178
3 -33.64944458 -3.371128559 44.57669449
1 -32.49796677 -4.939860821 40.89415359
3 -33.33752441 -3.875853062 40.61201859
1 -32.23900604 -5.835267544 37.29851532
3 -32.45390701 -4.481681824 36.80586624
1 -32.09902954 -6.805988789 34.2541008
3 -31.24217796 -5.353023052 34.15026474
1 -31.56611633 -7.238411427 30.58222198
3 -29.92140007 -6.711613178 30.60902977
1 -31.2190361 -7.340910435 26.61852074
3 -29.80257416 -7.914644241 26.74689484
1 -30.75337791 -7.657124519 22.64793777
3 -29.57609367 -8.743415833 22.78288651
1 -30.37875366 -8.464651108 19.26394653
3 -30.45209885 -9.866202354 19.52078819
1 -30.04125404 -9.260896683 15.72035313
3 -30.87242317 -10.62406445 16.0618763
1 -29.06207085 -10.76042271 12.27416706
3 -30.53261566 -11.44029045 12.04254532
1 -29.05776405 -12.27070999 8.863117218
3 -30.48182297 -12.1081028 8.498148918
0 -29.4804287 -14.09745502 4.366687775
2 -30.47582436 -12.93279457 4.006844044
0 -0.0006220292416 0.2524081171 -109.2882767
2 0.3403990269 1.366153359 -109.0170135
1 1.450635552 -1.504828453 -105.9575882
3 0.7274264097 -0.4982028306 -105.177948
1 2.235262394 -3.188180685 -102.5039215
3 0.8669005632 -2.839705944 -102.0169525
1 2.559372663 -4.548418999 -99.45149994
3 0.9688462615 -5.065143585 -99.45025635
1 2.780022383 -6.24652195 -96.14226532
3 1.960394621 -7.233095169 -96.77210999
1 3.383648157 -7.392712116 -93.10416412
3 3.156321526 -8.723769188 -93.65307617
1 4.026717663 -8.983697891 -89.74185944
3 4.792871952 -10.08598232 -90.43218994
1 5.041753292 -10.48643494 -86.17772675
3 6.167029381 -11.28723431 -86.90287781
1 6.042284489 -11.78915119 -82.81207275
3 7.660402298 -11.61625195 -83.4342041
1 7.642492771 -12.2872715 -79.00663757
3 8.936673164 -11.89485073 -79.50982666
1 9.200930595 -12.88052845 -75.96007538
3 10.14051437 -11.96703529 -76.05139923
1 10.46113205 -13.47224236 -72.48461151
3 10.95741081 -11.94750881 -72.63420105
1 12.28223705 -14.09008026 -68.7990799
3 12.08756828 -12.75749588 -68.48223114
1 14.09961033 -14.69762707 -65.56485748
3 12.92913532 -13.95371532 -64.60250092
1 15.74929619 -15.28967953 -62.60906219
3 14.43559551 -15.48105621 -61.97348785
1 17.53471375 -15.96531296 -59.10765457
3 16.52173805 -16.76267052 -58.74185944
1 18.89150047 -16.46468353 -56.58614349
3 18.38721657 -17.92627525 -56.59808731
1 20.40063286 -16.7365551 -53.25531006
3 20.61018753 -18.35119438 -53.25585175
1 21.8693943 -17.15172005 -49.89971542