0 -26.53767586 -31.88969994 -25.89271736
1 -26.57548714 -18.98183823 -24.18146515
1 -29.25434494 -4.21273756 -26.8042202
1 -28.58373642 9.566998482 -29.232481
1 -30.5401535 23.49986839 -30.9412117
0 -33.88912964 35.27295303 -32.14609909
0 0.2648045123 8.42378521 48.23178482
1 0.8080181479 15.0940237 35.97480011
1 -0.603865087 22.71676064 23.26311302
1 -5.736663342 29.62756538 11.93349075
1 -11.31116867 32.28668213 -2.364429951
0 -15.0977459 34.73828125 -13.63313389
0 43.79618454 5.93083334 -19.97564697
1 32.49996567 10.32431889 -16.56768417
1 20.33638763 18.86122131 -15.86431599
1 8.769853592 25.96292305 -16.68330383
1 -1.870573878 33.15842438 -21.08105659
0 -10.27553749 39.58992004 -26.54537582
0 45.014431 -5.142971039 -3.04638648
1 38.54422379 0.5199443698 7.174032688
1 34.70790482 3.169770002 20.77593803
1 27.43859291 6.257036209 33.35342789
1 20.04273605 5.633030891 46.87204361
0 12.52463722 5.613297462 56.73858643
0 -33.8589325 -40.99946976 -4.489806652
1 -29.94339561 -34.0053978 4.963064194
1 -26.58130074 -25.59658432 13.65797424
1 -22.98861885 -17.29822731 23.89198112
1 -16.10438728 -8.654183388 34.08310699
0 -8.582720757 -2.723147631 41.67370987
0 -16.98550415 -46.03536606 -19.06585693
1 -5.674898148 -40.42478943 -22.43103981
1 5.001160145 -30.81276703 -24.52682114
1 15.19331837 -22.71024704 -24.5459137
1 28.48897171 -14.51316833 -23.6316967
0 37.05664825 -5.289527416 -23.53828812
2 -25.17578125 41.16369629 -28.44901466
2 43.54512787 7.534047604 -21.71073341
2 -19.05755615 -39.96439362 -31.22756767
2 -37.10311508 -41.19225693 -19.55279922
2 -8.58965683 1.204593539 38.34785843
2 -26.2639904 30.53035736 -21.68164635
2 3.864653111 -2.690372229 48.27728653
2 -26.55052185 -50.9723053 -9.389075279
2 43.5541153 -10.57060337 -15.72387123
2 47.82683945 6.300036907 -8.447335243
2 -20.1589222 46.47515869 -19.07572556
2 9.034617424 17.18310928 48.36090851
