0 41.5612793 28.81895256 34.87148285
2 41.61272049 27.4429493 34.68033981
1 38.7163353 28.54839516 35.26131058
3 38.94623184 27.34239769 36.03588867
1 35.23465347 28.3204174 36.31870651
3 35.5397377 27.72142982 37.41030884
1 31.24904633 28.42621422 37.20428848
3 31.65734673 28.39367676 38.4716835
1 27.96209145 28.04122925 37.87717056
3 28.33308601 29.14831352 38.95598602
1 24.17471695 27.41725159 38.09871292
3 24.19055748 28.78668594 38.48268127
1 20.74947929 27.47804451 39.07691193
3 20.40519524 28.94719315 38.44268036
1 16.92350197 27.45557213 39.96549988
3 16.69400024 28.16233635 38.60485077
1 13.58848763 27.92513847 40.44398117
3 13.19742298 27.88184357 38.76017761
1 9.61536026 28.63482666 40.51282501
3 9.447956085 28.09661102 39.53993225
1 6.561212063 29.48136902 40.85948563
3 6.212197781 28.20017242 40.50949097
1 3.234621048 30.56987953 41.00753021
3 2.756284714 29.30472755 41.64168549
1 0.0650735423 31.79771614 41.06745911
3 -0.2591758668 30.80798149 42.30809784
1 -4.043582439 33.27839279 41.72326279
3 -4.236154079 33.45232773 43.21601868
1 -7.867399693 35.26176834 41.63779449
3 -7.453843594 36.09759521 42.78688049
1 -10.36106968 37.04354477 41.80740356
3 -9.56550312 38.15920258 42.23842621
1 -13.50955963 39.35393143 41.79024124
3 -12.56220722 40.51789856 41.28116608
1 -16.25939941 41.42187119 41.52024841
3 -15.7194252 41.93592453 40.44448471
1 -19.31381416 43.91661453 41.3522644
3 -19.35713959 43.98587418 39.78475189
1 -21.73810577 47.08324051 41.71152496
3 -22.78037834 46.83617783 40.48513412
1 -22.67193985 49.7257576 42.5623436
3 -24.35817146 49.91915131 42.07946396
0 -22.23856735 52.65791321 43.56005859
2 -23.65775681 52.52183151 44.25368118
0 32.60023499 -39.07603073 41.74793625
2 32.835392 -41.05632782 41.56985474
1 30.43794823 -39.12134933 39.70411301
3 30.11693954 -40.32402039 40.30485916
1 27.64908028 -39.32194901 38.16380692
3 26.92261314 -39.84373856 39.44560242
1 24.18297386 -39.34253693 36.62561035
3 23.79670525 -38.60395432 37.85503006
1 20.70585442 -39.16712952 35.89435959
3 20.77542877 -37.69678879 36.59858322
1 17.86279488 -38.73910141 36.13891983
3 18.13420486 -37.22729492 35.5498848
1 14.20589733 -38.14341354 36.20659256
3 14.20493031 -37.47098923 35.06626511
1 10.97655487 -37.76871872 36.98656464
3 10.63637352 -37.94317245 35.48368835
1 7.208711624 -36.5786705 37.60572433
3 6.264414787 -37.72163773 36.56851578
1 3.386477947 -35.57671738 38.97721481
3 2.920062304 -37.09207916 39.09291458
1 0.3257242441 -34.69863129 40.05456924
3 0.3297505677 -36.01193237 40.84303665
1 -2.359603643 -34.17474747 41.19572067
3 -1.881579518 -34.57392883 42.44093323
1 -5.245364189 -32.77238846 42.67285538
3 -4.279502869 -32.12483597 43.72832108
1 -8.45953083 -31.26874542 44.21978378
3 -7.677760124 -29.90576935 44.32980347
1 -11.13549042 -29.98328209 45.16360474
3 -10.77353573 -28.5983181 44.39772415
1 -14.96280575 -28.47281647 45.90211105
3 -14.95478535 -28.06048203 44.4763298
1 -18.67691231 -27.17206573 46.92817688
3 -18.90598106 -28.0553875 45.55044937
1 -22.00126648 -26.08097839 47.12724686
3 -22.53944016 -27.49850464 46.89624786
1 -25.41003227 -24.91522217 47.61516571
3 -25.58936501 -26.25160599 48.3893013
1 -28.34500313 -24.2634201 47.9458847
3 -28.30127716 -24.70772362 49.32721329
1 -31.78594208 -22.98524475 48.62145996
3 -31.3094883 -22.44924545 50.04572296
0 -34.35792923 -22.94543266 49.39026642
2 -33.99329376 -21.42361641 50.10369873
0 25.77012444 -46.53834915 -45.10631561
2 27.01798439 -46.40566254 -44.40496826
1 24.77919388 -44.80124664 -43.29533386
3 26.18853188 -44.06958008 -42.65951157
1 22.24180984 -42.24243546 -41.47942734
3 23.20770836 -41.02836609 -41.79155731
1 18.88950348 -39.84181976 -40.26810074
3 19.26569748 -38.68375397 -41.56861877
1 15.4053936 -37.80706024 -39.24470901
3 15.14467907 -37.48573685 -40.99286652
1 12.03202248 -36.33252716 -38.5539856
3 11.76905727 -36.88593292 -39.7776413
1 9.138587952 -35.09041214 -38.41662979
3 8.614959717 -36.38998032 -38.84981537
1 5.576406956 -33.71063232 -38.1062088
3 5.166373253 -35.27501297 -37.80179977
1 2.502625942 -32.73169327 -37.69495392
3 2.440373659 -33.70634842 -36.65193558
1 -1.194394588 -31.68660545 -37.36560822
3 -0.9006330371 -31.61598969 -35.87716675
1 -4.376457214 -30.56333923 -36.80160141
3 -4.317287445 -29.93409157 -35.14685822
1 -7.527874947 -29.60643005 -36.14274216
3 -7.218632221 -28.34012032 -35.32231903
1 -11.16004848 -28.54444313 -35.51421738
3 -10.59433365 -27.37034225 -35.87207031
1 -14.54051208 -27.62212944 -34.97464752
3 -14.26786137 -26.84291077 -35.88261414
1 -17.91935349 -26.97403145 -34.97002029
3 -18.06638145 -26.71126938 -36.33893585
1 -20.78281403 -26.41163635 -34.89591599
3 -20.92111969 -27.01273346 -36.47725296
1 -24.45981407 -25.64571381 -34.90621567
3 -24.92033577 -26.95980835 -35.75156403
1 -27.85563469 -24.61834145 -34.87526703
3 -28.25013733 -26.20938492 -34.70596313
1 -31.2672348 -23.83613014 -34.70291519
3 -31.7094574 -24.80213165 -33.44730759
1 -34.82190704 -22.97021866 -34.78950882
3 -34.90814209 -22.91722488 -33.32180023
1 -38.32365417 -21.65105438 -34.71864319
3 -37.93924713 -20.91335487 -33.71430969
0 -40.55984879 -21.21809578 -34.4594574
2 -40.02494049 -19.89071655 -33.93157196
0 21.44465828 -28.36198807 -39.25794601
2 20.22077751 -27.78922272 -39.90215683
1 22.7032032 -26.07787895 -38.61240768
3 21.42037773 -25.33348083 -38.8020134
1 24.934618 -22.95364952 -38.19353867
3 24.03442764 -21.96523285 -37.4211235
1 26.99196625 -20.3881321 -37.90068054
3 26.55487633 -20.06130409 -36.58575439
1 29.13108444 -18.19674301 -37.97064972
3 29.62842941 -18.23192596 -36.26943207
1 31.27773857 -15.41625786 -38.47429276
3 32.05926895 -16.11597252 -37.60214996
1 33.14287186 -12.7330246 -39.08738708
3 34.25157547 -13.77949333 -39.05285645
1 35.01407623 -9.443147659 -39.84111786
3 35.80858612 -10.3594408 -41.01910782
1 36.81909561 -6.647801399 -40.50017548
3 36.92332077 -6.969819546 -41.8350563
1 38.55006409 -4.236341 -41.19867325
3 37.75304031 -4.025724888 -42.5776825
1 39.66339493 -1.260783672 -41.93424988
3 38.43558121 -1.145591855 -42.8045845
1 40.65850449 1.617898703 -42.73154449
3 39.14404297 2.263727427 -42.74291229
1 41.58581161 4.637935162 -43.73386002
3 40.22657013 5.145917892 -42.72322083
1 42.06575012 8.054983139 -44.17150116
3 41.33330536 8.309066772 -42.60089874
1 42.46812057 11.5919838 -44.62850189
3 43.12698364 11.67719173 -43.28013229
1 43.01917267 15.14682579 -44.76854706
3 44.14946365 15.12708664 -43.8069191
1 42.97409439 18.50736046 -45.11781693
3 44.39667892 18.64901924 -44.99106979
1 43.07405472 22.79218292 -45.1701622
3 44.48099899 22.40628815 -46.13544083
1 43.54765701 26.48167992 -45.79946136
3 43.81505966 26.01532555 -47.07408142
1 44.93979645 29.59580231 -46.37986755
3 44.25516891 29.58441734 -47.91027069
1 46.15493011 32.72717285 -46.63689041
3 45.26013565 33.41968918 -47.84077454
0 48.05181122 33.92443466 -47.19979858
2 46.57128143 35.1149292 -47.32338333
0 34.99414444 22.46327019 -54.25774002
2 34.81014252 22.05224419 -55.75147247
1 31.9509449 23.15150452 -53.8107338
3 31.42030334 22.09754753 -54.77952957
1 28.47249413 24.45818901 -53.20086288
3 28.04854774 23.28972244 -53.2865181
1 25.09926605 25.58149338 -52.59306335
3 24.91207695 23.91533089 -52.34751511
1 21.37212181 26.13818359 -51.93131256
3 21.35290337 24.88741112 -50.95729065
1 18.22013664 26.96338654 -51.22953033
3 18.34233665 26.14371681 -49.66867447
1 14.49678421 27.68297958 -50.75703812
3 14.64655018 28.05262375 -49.12010574
1 11.15285778 28.8847332 -50.80815506
3 11.71764088 29.57551003 -49.36433411
1 7.955892563 30.64770317 -50.10940552
3 8.752430916 31.92305946 -49.87963104
1 4.781594276 33.28083801 -48.9817276
3 5.622051239 34.51859283 -49.40659332
1 1.886013627 35.29387665 -47.83943558
3 2.162423134 36.10152054 -48.82019424
1 -0.8622507453 37.10613632 -46.87402725
3 -1.011340022 37.48565674 -47.91576004
1 -2.988185644 39.02961731 -45.99177551
3 -3.612223625 39.0102005 -47.33679962
1 -6.699307442 40.751091 -44.91940689
3 -7.618422031 40.1473465 -46.36705017
1 -10.29796314 41.86016464 -43.93419266
3 -10.78350639 40.62202072 -44.63005829
1 -13.50599098 42.84075546 -42.97628403
3 -13.83221149 41.64196014 -42.92761993
1 -17.03451157 44.16069412 -42.03756714
3 -17.48174286 42.97933197 -41.56435394
1 -20.48407936 45.34811401 -41.31780243
3 -20.34456825 44.40244675 -40.03043747
1 -24.59631538 46.41246796 -40.81738663
3 -24.48987198 46.59077835 -39.27607727
1 -28.04561424 46.61148834 -40.14616394
3 -27.58078384 47.42032242 -39.075634
1 -31.61927223 46.91444016 -39.04827881
3 -31.33689308 48.18822861 -38.13106918
0 -34.16722488 46.19374847 -37.66158295
2 -34.06494904 48.15503693 -37.6464653
0 -49.71036148 -32.44454193 -45.94280243
2 -49.31092834 -33.07561111 -47.24794769
1 -47.47698593 -31.38038063 -45.79116821
3 -47.1107254 -31.56535912 -47.24128723
1 -44.52949905 -29.59186363 -45.82313919
3 -44.84766006 -29.19487572 -47.32727814
1 -41.91085052 -27.16708755 -46.21147919
3 -42.84189987 -26.25684166 -47.4311409
1 -39.76958466 -24.28019905 -46.77445221
3 -41.20988083 -23.51708221 -47.35664368
1 -38.34710693 -21.33260727 -47.18067551
3 -39.76832199 -20.55965805 -46.77470779
1 -36.91334152 -18.12383461 -47.61668777
3 -37.939785 -17.85577202 -46.46032715
1 -36.18185425 -15.40957642 -47.67016602
3 -36.65941238 -15.32771015 -46.23088074
1 -35.23446274 -11.3625927 -47.57064056
3 -34.94606018 -11.59373283 -45.98478317
1 -35.0030632 -7.830832481 -47.22273636
3 -34.00568771 -7.99119997 -46.31554413
1 -34.97105408 -4.613343716 -46.29681396
3 -33.43645096 -4.686520576 -45.96952438
1 -34.81269455 -0.9455555677 -44.9480629
3 -33.27843857 -0.8075919747 -45.45357513
1 -35.02708817 1.936834574 -43.76238251
3 -33.88619995 2.74293828 -44.32706451
1 -35.56167984 5.083055973 -42.19562531
3 -35.1577301 5.541644096 -43.48978043
1 -36.40253067 7.954627991 -40.87003326
3 -36.4903717 8.605843544 -42.14593506
1 -37.03309631 11.32152557 -39.45264053
3 -38.11330795 11.73857689 -40.70332336
1 -37.61323166 14.02353096 -38.38015366
3 -38.73423004 13.87166309 -39.05937576
1 -38.0923233 16.75695038 -37.30857849
3 -39.41924286 16.30059242 -37.29781342
1 -38.73712921 19.77921104 -36.31513214
3 -40.05121231 19.10488701 -35.44308853
1 -39.58491898 23.08435631 -35.77876282
3 -40.15232086 22.59761429 -34.47751999
1 -40.19161987 27.26065636 -35.07777405
3 -40.20349121 26.90263939 -33.60904312
0 -40.48432159 29.75605011 -34.18557739
2 -40.14319611 29.43087959 -32.97109222
0 -52.54327393 43.2899971 -39.9526329
2 -51.92700577 43.06907654 -41.33121109
1 -50.41338348 43.02650452 -39.62814713
3 -49.71219635 43.45880127 -41.30502701
1 -46.94181824 42.56897736 -37.39741898
3 -46.1562767 43.43608093 -38.0831337
1 -44.34008408 42.4961586 -34.3105545
3 -43.93467331 44.0219574 -34.63267899
1 -41.90317917 42.22215271 -31.42211533
3 -42.25802994 43.54952621 -30.89054871
1 -40.20081711 42.01169586 -28.12167168
3 -41.63295364 42.79268646 -27.70929146
1 -39.08454895 41.68951035 -24.52635765
3 -40.67440796 41.54179382 -24.13825417
1 -37.87158585 41.52770233 -21.03186417
3 -38.92343521 40.3342247 -20.62668228
1 -37.387043 42.31875229 -17.09343338
3 -37.5956955 40.61725998 -16.79106712
1 -36.92533875 43.21867752 -13.660285
3 -36.17307663 41.70436859 -13.2468214
1 -36.79186249 44.81547546 -10.14349461
3 -35.30892563 43.9591217 -10.19391155
1 -36.25919342 45.83847427 -6.063939571
3 -34.70744705 46.55095673 -6.051905155
1 -36.01554108 46.57555008 -2.978027344
3 -35.3789978 47.6391716 -3.200979948
1 -35.48945999 46.91233063 0.9600703716
3 -35.48154449 48.54333496 0.6118623614
1 -34.82294083 47.41396713 4.680890083
3 -35.84920502 48.79534531 4.565634251
1 -34.21354675 47.76243591 8.390093803
3 -35.5682869 48.10002136 8.752729416
1 -33.08716583 48.021595 11.91099644
3 -34.59043884 47.6213913 12.12508774
1 -32.19190216 48.13215256 14.32971764
3 -33.09892273 47.06816483 14.63465118
1 -30.68479538 47.92886353 17.03964233
3 -31.17065811 46.42276001 16.97218513
1 -29.08291054 47.76239014 20.1765728
3 -28.25395584 46.61373138 19.81497955
1 -27.11112404 47.62207794 23.34773445
3 -26.0376339 46.78012848 22.55607033
0 -25.63511276 46.90643692 25.691679
2 -24.20879555 47.1092186 24.90418434
0 -51.33869934 -25.40541649 56.44073105
2 -51.48456573 -26.79358673 56.22266006
1 -50.22995758 -24.86408234 54.33175278
3 -49.99783325 -26.14458847 53.98120117
1 -47.80251312 -23.25692749 52.31463623
3 -48.2245369 -24.02036095 51.02064514
1 -46.51678848 -20.90405273 50.57064056
3 -47.67455673 -21.20121956 49.452034
1 -44.939888 -18.05985832 48.54676056
3 -46.45799255 -17.83965111 47.88834
1 -43.94866562 -14.89165592 46.96280289
3 -45.60372925 -14.30835915 47.04759598
1 -43.10006714 -11.8800869 45.62518311
3 -44.173069 -10.99652863 46.5805397
1 -41.56388092 -8.913408279 43.97698975
3 -42.05991364 -8.176883698 45.11709595
1 -40.22888565 -5.948921204 42.81438065
3 -39.69079971 -5.727021217 44.30523682
1 -39.1166954 -3.08570075 42.06290817
3 -38.01075745 -3.283295155 43.07810211
1 -37.91578674 -0.09516500682 41.43979263
3 -36.70561218 -0.7645196915 41.81040573
1 -36.61151505 2.436393738 40.68950272
3 -35.56295395 1.757493615 40.13965225
1 -35.0925827 5.424060822 39.65389633
3 -34.25373077 4.542118549 38.64356613
1 -33.69649887 8.522213936 39.21133804
3 -33.45595932 8.370260239 37.4874382
1 -32.00399399 11.94381046 38.82807922
3 -32.58580017 12.02836132 37.51865768
1 -30.73906708 14.58351517 38.47774506
3 -32.17100906 15.42178059 37.74681091
1 -29.24423409 17.57905579 38.737957
3 -30.39818192 18.35092735 38.92470551
1 -27.65771675 20.92698479 39.1564064
3 -28.51974106 21.34661484 39.90919495
1 -25.91209221 24.10075569 39.35488129
3 -26.56954002 24.58148384 40.96131897
1 -24.61294937 27.72459984 39.34679031
3 -24.01955032 27.47340012 40.76099014
1 -23.56283569 31.30532265 39.11473465
3 -22.61783981 30.97605515 40.05752182
0 -22.98296928 33.89949036 38.49401093
2 -21.33287621 33.31018448 38.69549561
0 36.95359802 23.48365021 -36.23936462
2 37.84193039 22.29925346 -35.84391403
1 36.17276001 23.61774826 -33.87615204
3 37.65432739 23.03581047 -33.18849182
1 34.47032928 23.73591042 -30.11930084
3 35.99542999 24.23285675 -29.3795929
1 33.78806305 24.90283012 -26.3297863
3 34.46719742 25.78349495 -26.57549667
1 32.65968704 26.22437286 -23.14442825
3 32.73937225 27.75885201 -23.79616547
1 31.7933712 27.78199768 -19.8559227
3 30.82334709 28.93832588 -20.67199707
1 31.00889397 29.56066513 -17.10426903
3 29.33724022 29.77355003 -17.54417992
1 30.1078186 31.50406265 -13.83842945
3 28.36687851 31.00940132 -13.93061543
1 29.27298737 33.82169724 -10.87878036
3 28.41540146 33.00787354 -10.24214363
1 28.49798012 35.85370255 -8.13658905
3 28.41408348 34.7677002 -7.37895298
1 28.13954735 38.1306572 -5.517421722
3 28.91360474 37.05498886 -4.716910362
1 27.75049591 40.94944382 -2.00897646
3 28.89920998 40.69925308 -1.694343925
1 27.23276329 42.77464294 1.150531292
3 28.90376472 43.44150543 1.203510761
1 27.03144455 44.3770256 4.625222206
3 28.11645126 45.50853348 3.918222904
1 27.99945068 45.88586807 7.992450714
3 27.73484612 47.38873672 7.155446053
1 28.43827438 46.98879242 10.85855865
3 27.77794647 48.29130554 10.76197529
1 29.60593605 47.84895706 14.38033199
3 28.2858696 48.15185165 14.82667923
1 31.14281654 47.77955246 17.20458031
3 29.69045448 47.04665756 18.12342644
1 32.61684799 47.63465118 20.08174515
3 32.03673553 46.03775787 20.28599548
1 34.60578156 47.10760117 22.4948864
3 34.86626816 45.61981201 21.78833961
1 36.96960449 46.16129303 24.68183517
3 37.55183029 45.3937149 23.57522774
0 38.89942169 44.99634933 26.64123917
2 39.93743515 45.28370667 25.61069107
0 48.88148117 43.63641739 42.64738083
2 48.89384079 44.10365295 44.28012848
1 47.79272842 42.08219147 43.68405914
3 47.22554779 43.3087616 44.52772522
1 46.18471909 39.71811295 45.26696014
3 44.86064529 40.69593811 45.58070374
1 44.93000793 37.06907654 46.68455505
3 43.69773102 37.4452095 46.13790131
1 44.09869003 34.10350037 47.50278473
3 43.45101929 34.13886642 46.48805618
1 43.62359619 30.45496559 48.22422409
3 43.64850235 30.48954964 46.96460342
1 43.19480515 26.85387802 48.08878708
3 44.25849152 26.83555412 47.04413223
1 43.45883179 23.20004845 47.81404877
3 44.86391449 23.28502464 47.25873947
1 43.59158325 19.78504753 47.35098267
3 45.01921082 19.68756294 47.72842407
1 43.71300125 16.43787766 46.87021255
3 44.93770981 16.56305122 48.16115189
1 43.77173996 13.00823307 46.73240662
3 44.33083344 12.803895 48.22594833
1 43.53622818 9.710562706 45.95645523
3 43.40926361 9.445214272 47.54484558
1 43.31441116 6.070817947 45.43873215
3 42.0377655 5.8140378 46.40288162
1 43.39751816 3.047112226 44.58031464
3 42.02261734 3.040363789 44.70265579
1 43.11599731 -0.04811884463 43.4552269
3 42.03020477 0.4463029206 42.64954376
1 42.8366127 -2.396996021 42.8105011
3 42.61445618 -1.947366238 41.13399887
1 42.0784874 -5.939544678 42.42477036
3 42.40443802 -5.81831646 41.00354767
1 41.23313904 -9.18432045 42.0451355
3 42.62232208 -9.340665817 41.38221741
1 40.49300385 -12.27938652 41.74824524
3 41.82714462 -12.62249184 41.84899139
1 39.63337326 -15.63651848 41.0605545
3 40.6544342 -15.9705658 42.13289261
1 38.17741013 -18.93479156 41.03239822
3 38.65706635 -19.02714729 42.46456146
0 36.92356491 -21.39912415 41.44985962
2 36.81365967 -21.26015854 42.98490524
0 20.37225533 -27.3272438 35.08579636
2 19.1041851 -26.91683578 34.45354843
1 21.80068207 -27.24320793 31.66778755
3 20.50016403 -26.48960495 31.32010651
1 23.12260818 -27.70657921 27.83418655
3 22.4543705 -26.18920517 27.86623955
1 24.22085953 -27.81253624 24.27468491
3 24.58302689 -26.33509445 24.14216232
1 25.38389206 -28.41391373 20.60528374
3 26.29211807 -27.33205795 20.76995659
1 26.96521759 -29.14049149 17.22572517
3 28.34613228 -28.30914879 17.55292511
1 28.07911682 -29.87071609 14.16897678
3 29.57052231 -29.98192024 14.68382835
1 28.9163208 -30.69665909 11.12248135
3 29.99107933 -31.53291321 11.54014015
1 29.39430618 -31.48544693 7.847245693
3 29.70980072 -32.92446136 8.097916603
1 29.54961395 -31.84818649 4.422790051
3 28.79170418 -33.23780441 4.768782139
1 29.36297989 -32.94256973 0.5935916305
3 28.03171158 -33.55067825 0.7649165988
1 29.39379883 -34.25857162 -3.394478321
3 27.88160515 -34.0162735 -3.259383917
1 28.99694443 -35.59354782 -6.589792252
3 27.89825058 -34.52539062 -6.768563271
1 28.53243256 -37.12405396 -9.350629807
3 27.93041992 -35.58378983 -9.752947807
1 27.13551521 -38.36058807 -12.22935963
3 27.75200272 -37.08470154 -12.92351055
1 26.12589073 -39.68074417 -15.08839703
3 26.92583275 -38.84741211 -15.7183876
1 24.59519577 -40.73670197 -18.22578049
3 25.79911804 -40.99006653 -18.95288658
1 22.44221687 -41.73571777 -21.61763
3 23.50675011 -42.57392883 -22.13911438
1 20.5844841 -42.4576416 -24.14533043
3 21.21667671 -43.89396286 -24.35859489
1 18.14729309 -43.15407181 -26.78289604
3 17.87831879 -44.9538765 -26.56661415
1 16.10465431 -43.46796036 -28.79904747
3 15.28033543 -44.82962036 -28.18307495
0 14.43839073 -44.00104141 -30.92676926
2 13.03798676 -44.15532684 -29.94255447
0 -51.00970078 -34.87268066 -28.16936111
2 -52.80558777 -34.96826935 -27.76956749
1 -50.78833389 -36.14851379 -25.77283859
3 -52.47883987 -36.3338356 -25.84711266
1 -50.41120529 -37.63351822 -21.78432083
3 -51.46624374 -38.53334427 -22.3261795
1 -50.16162491 -38.85604858 -18.30136108
3 -50.52026749 -40.32800674 -18.69600677
1 -49.6241188 -39.78126526 -14.5065136
3 -49.03695297 -41.32317352 -14.92897224
1 -48.82777405 -40.89650345 -10.86966801
3 -47.67483902 -41.78712845 -11.31441975
1 -48.37720871 -41.67840576 -7.792692661
3 -46.88328934 -41.83375549 -7.898847103
1 -48.0037384 -41.95514679 -4.752858162
3 -46.56114197 -41.17054749 -5.248216629
1 -47.33706284 -41.85122299 -1.872490168
3 -46.40287018 -40.44662476 -2.085041046
1 -46.47951126 -41.9681282 1.940146208
3 -46.75061035 -40.51737213 2.099862337
1 -46.64723206 -41.62498093 5.423168182
3 -47.48640823 -40.42760849 5.538864136
1 -47.39290619 -40.69325638 9.445563316
3 -48.62371445 -40.42224884 8.862074852
1 -48.11149597 -39.93361282 12.97204113
3 -49.69100189 -40.54225159 12.9523983
1 -49.04889679 -38.41933441 16.39025879
3 -50.06440735 -39.60007095 16.80173874
1 -49.97732544 -36.61391449 18.95228195
3 -50.06958389 -37.84000015 20.03829765
1 -50.48221588 -34.47654343 22.22259521
3 -49.82905579 -35.6854744 22.8922081
1 -50.6800766 -32.2519722 25.30895233
3 -49.23009872 -32.84641266 25.76631927
1 -50.6745491 -29.43165016 28.03949738
3 -49.12469864 -29.54650688 27.90952682
1 -50.36249161 -27.35752296 30.45743561
3 -49.12677002 -26.67985535 29.85136986
1 -49.98071671 -25.50576019 33.12787628
3 -49.09448242 -24.43248749 32.14868546
1 -49.50457764 -23.65670204 35.48089218
3 -50.04032898 -22.05054092 34.49607849
0 -49.40957642 -22.4658165 38.09409714
2 -49.94790649 -21.30482483 37.59893417
