0 41.54483032 28.77988815 35.02244568
2 41.89831161 27.34376526 35.44470596
1 38.71971512 28.63502121 35.94758606
3 38.98866653 27.46138 36.8283844
1 35.38011932 28.64691544 37.06654358
3 35.78539276 28.37464905 38.79676437
1 31.4160862 28.79855537 37.76732635
3 31.72225189 29.44472504 39.24414444
1 28.25115013 29.02469635 38.53730011
3 28.44543839 30.22415733 39.38291931
1 24.90844727 29.24555969 39.06017303
3 24.96556664 30.81601715 39.12168121
1 21.41567993 29.64645767 39.88370132
3 21.56297684 30.64542007 39.0892868
1 17.96733093 30.22191048 40.38944244
3 17.72760201 30.99897385 38.85360718
1 14.41527462 31.25919914 41.11630249
3 14.09854221 30.64907455 39.84980774
1 10.56911755 31.83725357 41.31092834
3 10.36390781 30.34603119 40.47576904
1 7.218962669 32.2474556 41.26389313
3 6.753479958 30.99485016 41.49918747
1 3.606699705 32.99338531 41.08209991
3 3.285864353 31.89146423 42.29334259
1 -0.09975279123 33.83793259 40.36533356
3 -0.401247561 33.6906929 41.68496704
1 -4.065304756 35.53127289 39.67670059
3 -4.087156773 36.04941177 41.51485825
1 -7.930497169 37.08575058 39.31959915
3 -7.691298485 38.12121201 40.47734451
1 -11.19714069 38.80950928 39.32625198
3 -10.86294079 40.29794693 39.52735138
1 -14.51315022 40.15463257 39.76006699
3 -13.75322628 41.58956146 39.07725525
1 -18.21848679 42.20260239 40.05406952
3 -17.72604179 43.00492096 38.66679764
1 -21.95533943 44.5109024 40.73457336
3 -22.05090332 44.67788696 39.51649475
1 -24.44764328 46.93448257 42.0080452
3 -25.47367096 46.95541 40.8809967
1 -24.98027802 49.98918915 43.09748077
3 -26.90303421 50.02190781 42.81967163
0 -24.98205948 51.91999817 44.06088638
2 -26.32597542 52.26767731 44.69163132
0 30.57623482 -41.90335846 45.93331909
2 30.18314171 -43.61164474 45.76647186
1 29.30025864 -41.6659584 43.64577484
3 29.76387405 -40.00971222 43.45460892
1 26.35730743 -41.49794769 40.67070007
3 26.93453407 -40.63044357 39.71992493
1 23.31240463 -41.53878021 38.40995789
3 24.15655899 -41.26371002 37.16972733
1 20.64506912 -41.02296829 37.22661972
3 21.07726097 -41.89927673 35.99814987
1 16.91572571 -40.29527283 36.00014114
3 16.75453568 -41.64400864 35.45332336
1 13.20112419 -38.87532806 34.86401367
3 12.63852501 -40.06302261 34.65396118
1 10.32280254 -37.39319992 34.56001663
3 9.912882805 -38.50074387 35.56758118
1 6.865212917 -35.31105804 35.12512207
3 6.983230114 -35.6882515 36.50554276
1 3.862381697 -33.78903961 35.91381836
3 4.635913849 -33.21624756 36.82300949
1 0.9735752344 -31.8513031 37.04376221
3 2.019006491 -30.68895149 37.84460831
1 -1.4237324 -30.38121033 38.23371887
3 -0.6971479654 -29.26868439 37.96627045
1 -4.600080967 -28.8433094 39.56079865
3 -4.602869511 -27.3843708 38.45713425
1 -8.06930542 -27.61894035 41.02301407
3 -8.102890968 -27.1866436 39.44002533
1 -10.95997143 -26.2805748 42.52922821
3 -11.9732275 -26.63253403 41.55537796
1 -13.9857645 -24.96727753 44.00098038
3 -14.84131908 -25.9872036 43.59874344
1 -17.43712807 -23.60688019 45.47942734
3 -17.7574749 -25.16432571 45.47674179
1 -20.55696106 -22.66172981 45.96570969
3 -20.87289238 -23.4957695 46.63970947
1 -23.95690536 -21.54304504 46.33765793
3 -24.31324005 -21.87209892 47.88698959
1 -26.88513565 -20.8934803 46.84383774
3 -26.63668823 -20.22270393 48.36419296
1 -30.16643715 -20.44391632 47.21220016
3 -29.80788612 -19.50416374 47.93556213
0 -33.38232422 -20.42493629 47.74406815
2 -33.1282692 -18.73323059 47.88938522
0 25.67626572 -51.15272141 -43.89851379
2 26.95646858 -51.0917778 -43.47022247
1 25.21245384 -48.94615555 -42.28283691
3 23.83511734 -49.16731644 -43.00055695
1 23.22198486 -46.3329277 -40.9245224
3 22.19832802 -47.08060455 -41.00618744
1 20.76564407 -44.26385117 -39.58831406
3 20.21115494 -45.45888138 -38.9390564
1 17.6760006 -42.39440918 -38.77012634
3 17.54762268 -43.20191193 -37.32934952
1 14.86746979 -40.64211273 -37.88324356
3 15.23262215 -40.33875656 -36.59078217
1 11.42864609 -38.71111679 -37.51731491
3 12.03363323 -37.7163353 -36.65472794
1 8.557132721 -37.19693756 -37.08260727
3 9.249352455 -35.78234863 -36.97694397
1 4.861990452 -35.70256805 -36.84136963
3 5.118183136 -34.17924118 -37.35646057
1 1.745844483 -34.04413223 -36.68626785
3 2.180457354 -33.06240463 -38.0150032
1 -1.210560441 -32.50912094 -36.58781052
3 -1.41937077 -32.54284286 -38.20320129
1 -4.692893505 -31.1820507 -36.32147217
3 -5.096645832 -31.78365707 -37.45433807
1 -8.48501873 -29.96908188 -36.31062317
3 -8.747976303 -31.27668762 -36.75621033
1 -12.29449844 -28.85891724 -36.16211319
3 -12.46502209 -30.11694717 -35.92082214
1 -16.12220192 -28.06570625 -36.05987549
3 -16.32196045 -28.09544945 -37.54813004
1 -20.01586914 -27.39442062 -36.02149963
3 -20.04910851 -28.33250618 -37.12675858
1 -23.37684059 -26.70242691 -36.08286285
3 -23.84004211 -28.13596725 -36.19448471
1 -26.07872391 -25.95005798 -36.26491928
3 -26.52534294 -27.24896431 -35.4030304
1 -29.46552849 -25.1662426 -36.51676559
3 -29.52518845 -25.97584534 -35.06677246
1 -33.10474396 -24.90793991 -36.47159576
3 -32.95425797 -24.75404167 -35.02558899
1 -36.91298676 -24.553545 -36.60119629
3 -36.76334 -23.59201241 -35.39271927
0 -39.75012589 -24.55057144 -36.44750214
2 -39.54656219 -23.04096031 -36.29346848
0 23.46877289 -34.43562698 -36.14559937
2 22.17981148 -33.60800552 -36.59426117
1 24.90109825 -31.44246292 -36.15545273
3 25.20638657 -32.0518837 -37.92179871
1 26.83451271 -28.47607803 -36.62949753
3 26.27241516 -28.51510811 -38.07057953
1 28.05860329 -26.30652237 -36.98739243
3 26.95336151 -26.22909355 -37.82122803
1 29.35848427 -23.31857109 -37.32846832
3 27.80712891 -22.77857399 -37.6955719
1 31.09998131 -19.81341362 -38.34011459
3 29.9233036 -19.26017952 -37.5632515
1 32.35181427 -16.88281441 -38.97318649
3 31.95778656 -16.38321495 -37.84030151
1 33.69692612 -13.82203865 -39.64864349
3 33.77286911 -13.63818645 -38.06871796
1 35.03139114 -10.55944443 -40.19441605
3 35.81559753 -10.91527843 -38.77121735
1 36.45804214 -7.372984409 -40.35416031
3 37.73893738 -7.818245888 -39.73524475
1 37.82363129 -3.411330462 -40.88531113
3 39.28202438 -4.14786768 -41.03141785
1 38.93839264 -0.01412792411 -41.15849304
3 39.91496658 -0.4585063159 -42.40890884
1 39.87034607 4.037266731 -41.59890747
3 39.98633957 3.834929466 -43.20582581
1 40.92818069 7.424791813 -42.0641861
3 40.12660217 7.56349659 -43.169487
1 41.56983185 11.70830441 -42.2523613
3 40.05136871 11.83709908 -42.81988144
1 41.99340057 15.16882801 -42.82512665
3 40.26455688 15.45974064 -42.62067795
1 42.28570557 18.72355461 -43.81332397
3 41.39206314 19.25663185 -42.68462372
1 42.97545242 22.10065842 -44.36891174
3 42.87778091 22.2112236 -42.89831543
1 43.66730118 25.75461388 -45.08952332
3 44.4617424 25.87263107 -44.13502502
1 44.7129097 28.33518791 -46.39585495
3 45.96531296 28.06145096 -45.47266769
1 46.70295715 30.42886734 -47.8032608
3 47.93697357 29.1933136 -47.45151901
0 48.70785522 31.49174118 -48.72970963
2 47.85536575 33.09272766 -48.50520706
0 33.2688942 22.85775185 -52.58514786
2 32.97636032 21.58062172 -53.52280045
1 30.3455925 22.89076233 -53.22759628
3 30.16666603 21.85737991 -54.02082062
1 27.0874958 23.81183815 -53.70842361
3 26.37809753 22.40273476 -53.79666138
1 23.77908325 24.32330132 -53.85249329
3 23.47249413 23.24246216 -53.00282288
1 20.51215935 25.19519043 -53.2417984
3 20.2444706 25.80082321 -54.72472763
1 16.86326408 26.41170311 -52.36562729
3 16.16288376 26.33502769 -53.52602768
1 13.45297813 28.63984108 -51.00924301
3 12.60713196 27.6283493 -51.79397964
1 10.96598148 29.81351852 -50.2301445
3 10.40256023 28.48322487 -50.23755264
1 8.044388771 31.16142273 -49.42335129
3 7.699976444 30.16319084 -48.71475983
1 4.237634659 32.83176422 -48.52531433
3 4.098750591 31.99412537 -47.10223007
1 0.5836962461 33.90704346 -47.52302933
3 0.812636435 34.04362488 -45.92153549
1 -2.995786905 35.16532516 -46.24055099
3 -2.312442064 35.87736511 -45.43491745
1 -5.899791241 36.66164017 -45.2764473
3 -5.26689291 37.75695801 -44.91188049
1 -8.965537071 37.41185379 -44.26220322
3 -9.129501343 38.80760574 -45.33540344
1 -12.1909771 38.1856308 -42.87014008
3 -12.69018841 38.69441605 -44.39473343
1 -15.45106506 39.63978577 -41.41967773
3 -16.40383911 39.21768951 -42.59959412
1 -18.65593338 41.17935562 -40.22455978
3 -19.45707321 40.08351517 -40.58029556
1 -21.17744637 42.5244751 -39.21339417
3 -21.81006813 41.35016251 -38.7135849
1 -24.28802109 44.40293884 -37.69663239
3 -24.13502884 43.71065903 -36.45510101
1 -27.22439766 45.93679047 -36.08795547
3 -26.6663723 45.92973328 -34.45985794
1 -29.97502327 47.32325363 -35.08621216
3 -29.26549339 47.95397568 -34.04996109
0 -32.12953186 48.28422546 -34.15325928
2 -31.23575211 49.38407135 -33.71305084
0 -56.19616699 -31.48493767 -43.95143127
2 -55.75798035 -31.39966965 -45.12329102
1 -53.8763237 -30.69013214 -43.24821472
3 -53.96910477 -30.36240196 -44.67189407
1 -51.45768356 -29.15880013 -42.96149826
3 -52.18678665 -28.31275177 -43.80913925
1 -49.47174072 -26.7915554 -43.1537056
3 -50.67839432 -25.91807175 -43.3810463
1 -47.4431839 -22.95298767 -43.61468887
3 -48.61764145 -22.25997543 -43.1297226
1 -46.17878342 -19.8238945 -44.23838043
3 -46.96646118 -19.41334724 -42.86545563
1 -44.68823624 -16.2669754 -44.27479553
3 -44.71146011 -16.4811821 -42.79156876
1 -43.37698364 -13.33683491 -43.78253555
3 -42.63409424 -13.94994068 -42.73021317
1 -41.44152832 -10.33613873 -42.95223999
3 -40.04661179 -11.00174618 -42.71964264
1 -39.46399307 -7.369085789 -42.31518173
3 -38.24231339 -7.938655376 -42.67517471
1 -38.07980728 -4.305800438 -41.31381607
3 -36.91009903 -4.315826416 -42.46835327
1 -36.96078491 -1.802080631 -40.20346832
3 -36.79947281 -1.45505929 -41.92179489
1 -36.19986343 1.922258139 -38.98923874
3 -36.64980698 2.498393536 -40.2417984
1 -35.81424713 4.859658241 -37.70062256
3 -37.10094452 5.285709858 -38.52759171
1 -35.69829178 8.880869865 -36.72480774
3 -37.33017731 9.058299065 -36.32808304
1 -35.52600098 11.90549278 -35.77840424
3 -36.6907196 11.84320164 -34.66349792
1 -35.55472946 15.40181732 -35.29610062
3 -35.76486206 15.15546894 -33.70841599
1 -36.0443573 18.6861496 -34.76528168
3 -35.67476273 18.38243866 -33.73528671
1 -36.38545227 22.49415588 -34.01677704
3 -35.31298065 22.56479263 -33.07069397
1 -37.03327942 25.43955994 -33.1661911
3 -38.42269516 25.12282944 -33.04659653
1 -37.53840637 28.64945793 -32.28022003
3 -38.60230255 28.01812935 -31.38489723
0 -38.09906769 31.11393547 -31.6083889
2 -38.57092285 30.44739342 -30.19830322
0 -49.23570633 43.02760696 -42.46951675
2 -48.37184525 42.91056824 -43.90881729
1 -47.08786392 42.10255051 -40.74455643
3 -46.07239532 43.12037277 -41.45965576
1 -44.89321518 41.64528656 -37.88546753
3 -44.20048904 43.1026001 -38.22369003
1 -43.0826416 41.80306244 -35.20732498
3 -43.40922165 43.44723892 -35.15566254
1 -41.80914688 42.69638443 -31.50273514
3 -42.79780197 43.80952072 -31.44553375
1 -40.88726044 42.89501953 -27.52083969
3 -42.10152435 43.03731537 -27.13560867
1 -39.85126495 42.84389877 -24.00384903
3 -41.2596283 42.42163086 -23.76739883
1 -39.37859726 43.10830688 -21.132864
3 -40.16312027 42.03815842 -21.14540482
1 -38.74663544 43.30823517 -17.75021935
3 -38.79191208 41.88906097 -17.41861343
1 -37.98154449 43.89626694 -14.5254221
3 -37.38858032 42.54755402 -14.33238316
1 -37.58782959 44.83786774 -11.24732971
3 -36.43136597 44.01662064 -11.05496407
1 -37.28271103 45.28604889 -7.055933475
3 -35.90726852 45.17630768 -7.180551052
1 -36.70121002 45.90667725 -3.189666986
3 -35.55747223 46.5281105 -3.42212081
1 -36.03449631 46.30672455 -0.3215604424
3 -35.85532761 47.58900833 -0.5333833098
1 -36.21030045 46.4675827 2.963661432
3 -36.62267685 47.87834167 2.770830631
1 -35.09251785 46.84939575 6.860448837
3 -36.43138885 47.77594376 6.944527149
1 -34.28425598 47.10914612 9.784305573
3 -35.88830566 46.92818832 9.844283104
1 -33.7047081 47.75444412 14.03046227
3 -34.57866287 46.64677811 14.19786739
1 -32.60724258 47.92900085 18.17609024
3 -33.12230301 46.45129776 18.51928902
1 -31.58755493 47.9438591 20.81367493
3 -31.04313469 46.76815414 20.69402313
1 -30.0004158 48.2117691 24.12973213
3 -28.81559563 47.66135406 23.53120804
0 -28.73489952 48.1374054 26.39711952
2 -27.21528053 48.041996 25.77787399
0 -49.17075729 -26.39513397 56.3735733
2 -48.94642639 -27.84290886 56.33973312
1 -48.29504395 -26.03037643 54.20872498
3 -48.46771622 -27.44615746 53.64917374
1 -47.43395615 -24.46279335 51.11447906
3 -48.29512024 -25.34990883 50.17385864
1 -46.49516678 -22.12473488 48.77180481
3 -47.67757797 -22.11878204 48.10828781
1 -45.5694313 -19.39146423 46.87266159
3 -47.02702332 -19.0179882 47.14546585
1 -44.5747757 -16.59838295 45.30175018
3 -45.79742432 -15.89877129 46.34575653
1 -44.0071373 -13.24098206 43.86602402
3 -44.39785767 -12.396451 44.82078171
1 -43.30919647 -10.10003185 42.47974777
3 -42.63592529 -9.806723595 43.75995636
1 -42.59369659 -6.610555172 41.68781281
3 -41.32812881 -6.919147015 42.77043533
1 -41.75881577 -3.396718979 41.29180145
3 -40.38870621 -3.747472048 41.21287155
1 -40.91284561 -0.2316711247 40.7039299
3 -39.70144653 -0.958557725 40.17361069
1 -39.81333923 3.073468924 39.65559769
3 -38.90824127 2.336345196 38.41978455
1 -38.61300278 6.339312077 38.80028534
3 -38.42049408 5.751075268 37.39708328
1 -37.051548 9.278203964 38.35041046
3 -37.72020721 9.388098717 36.76830673
1 -35.19739532 12.26930523 38.30506516
3 -36.32249832 12.49087048 37.13412476
1 -33.86061859 14.98473454 38.33114624
3 -35.13737106 15.4748497 37.79669952
1 -32.27154922 18.0359993 38.2710495
3 -33.56147003 18.70571518 38.6954422
1 -30.58634567 21.86064911 38.5680809
3 -31.3166275 22.04241371 39.91366577
1 -29.27569962 25.20704269 39.03359985
3 -29.58178329 25.04372787 40.63572311
1 -28.29046249 27.96846962 39.014431
3 -27.46203613 27.60951996 40.54568863
1 -26.69065094 31.52106094 38.82349396
3 -25.1594429 31.02170944 39.42524338
0 -25.9380722 33.93261719 38.45232773
2 -24.46355247 33.45415878 38.25279236
0 38.12339401 24.49908447 -34.69564438
2 38.83903885 23.22344208 -34.0551033
1 37.22572708 24.99311066 -32.70226288
3 38.40668488 24.21897697 -32.1854744
1 35.716362 26.35853195 -29.77973938
3 36.87033081 26.68327332 -29.17643166
1 34.13788605 28.31101418 -26.71663666
3 35.0537796 29.6231041 -26.80016518
1 32.6985054 29.57621193 -23.65262794
3 32.60309982 31.09457207 -24.37288284
1 31.14249611 30.89392471 -20.84248161
3 30.2084465 31.88367462 -21.63488579
1 29.90653229 32.18983459 -18.10402298
3 28.56707382 32.56523895 -18.80914497
1 28.70905304 33.63820267 -15.31075954
3 27.45129585 33.06151199 -15.47011185
1 27.01670265 34.7442627 -11.73716736
3 26.32657623 33.28149796 -11.49373722
1 25.99268723 35.70962906 -9.201305389
3 26.14697647 34.30280685 -8.918252945
1 24.72698975 36.65435028 -5.68908596
3 25.76961136 35.63082886 -5.193195343
1 24.5135994 37.73783875 -2.235517263
3 25.72758675 37.41862106 -2.030622482
1 24.5729866 38.76917648 1.250920177
3 25.54122162 39.28765869 1.099137306
1 25.34450722 40.38980865 4.714107513
3 26.21815491 41.69596863 3.958800316
1 26.60095215 41.93307114 7.921602249
3 26.23295403 43.4212532 7.182404518
1 27.8186264 43.48166656 10.68845558
3 26.943964 44.45287323 10.55993748
1 29.49329376 44.88336182 14.4780302
3 28.33841515 45.40548325 15.10559368
1 31.51123428 45.87963486 17.26332855
3 30.49818039 45.50493622 18.11922264
1 33.25224304 46.13185501 19.26321793
3 32.68944168 44.82731247 19.90675926
1 36.03567886 45.40626907 21.94737434
3 35.77959061 43.84337234 21.81969452
1 38.49440765 44.72404099 24.17331505
3 39.17412186 43.3624382 22.9513588
0 40.58516693 43.86968231 25.67558289
2 41.16400146 43.38025665 24.41970634
0 54.23592758 42.22395706 37.32141113
2 55.49058914 42.68417358 38.67774582
1 53.02528 40.93532944 39.35658646
3 53.76600647 41.54639053 40.32004166
1 51.91602707 38.37597656 41.62184906
3 51.78866577 39.24631119 42.72705841
1 51.05329132 36.21853256 42.94768524
3 50.19801712 36.93245316 44.16625595
1 50.27516937 33.28725815 44.15383911
3 48.6766777 33.6186676 44.54800415
1 49.63045883 29.35512352 44.77894592
3 48.07110596 29.69525528 44.29863358
1 49.45824051 25.78377914 45.32767105
3 48.42866135 25.56725502 44.17579269
1 49.38377762 22.11175537 45.44231796
3 48.91885376 22.09548378 43.7134819
1 48.6457901 17.99679947 45.17100143
3 49.359478 17.85183907 43.87763596
1 48.26345062 15.15599442 44.90096664
3 49.54613876 15.04796886 44.53169632
1 47.72651672 11.08867264 44.89974213
3 49.03396988 10.97811604 45.37446976
1 47.26099014 6.736898899 44.74378204
3 47.95751953 6.843832016 45.95918655
1 46.59267426 3.647822142 45.04911041
3 46.7525444 3.93215251 46.48616409
1 45.37412262 0.3535145223 45.22084427
3 44.72894669 1.199973345 46.67895889
1 43.76325989 -2.943622589 45.57198715
3 42.64085007 -2.386922836 45.89717102
1 42.69075012 -5.802927494 45.19379807
3 41.01176834 -5.134037971 45.0694313
1 41.67738724 -8.87197113 45.66701126
3 40.78577423 -8.547809601 44.43450928
1 40.58629227 -11.67280769 45.68635559
3 40.7052269 -11.49446106 44.30264664
1 39.46003342 -14.71961975 45.5746994
3 40.38519669 -14.70834923 44.26189041
1 38.06518555 -18.03443527 45.07513809
3 38.08710861 -18.23686218 46.7747345
1 36.4066658 -21.33437538 44.31832123
3 35.70184326 -20.95189285 45.51270676
0 34.90858841 -23.60518074 44.03256607
2 34.08359909 -22.94754601 45.12099838
0 23.56249619 -30.76445961 32.53256989
2 21.90143394 -30.44694519 32.47591782
1 23.70376778 -30.81832886 29.50944138
3 22.24633217 -29.81288528 29.32942963
1 24.46545792 -30.75267982 25.78582382
3 23.58706856 -29.55667877 25.63950348
1 25.24293137 -30.89344215 22.36310577
3 24.87042236 -29.25995255 22.73154259
1 25.97980309 -30.35877228 18.61014557
3 26.75623512 -28.89864731 18.90192986
1 26.96770477 -30.1143055 14.89299297
3 28.18540955 -29.3873558 15.71347427
1 28.14994621 -30.43438911 12.04283428
3 29.50820351 -30.55493355 12.69943333
1 29.20022774 -30.81031227 8.747746468
3 30.32258415 -31.70401955 8.923387527
1 30.2705307 -31.20040512 4.873843193
3 30.78552437 -32.6159668 5.1636796
1 31.1163578 -32.01877975 1.837013006
3 30.96698189 -33.28124237 2.149347067
1 31.32816315 -33.00579453 -1.160182714
3 30.08418274 -33.90536499 -0.7193550467
1 31.61694145 -34.6902504 -4.569692135
3 30.30940247 -34.97994614 -4.633813381
1 31.85644913 -36.44548035 -7.981071949
3 30.16849899 -35.75866318 -8.175428391
1 31.63312149 -37.87678528 -11.04701233
3 30.4604454 -36.68674088 -11.34014702
1 30.96419144 -39.56082535 -13.65852165
3 30.74311066 -38.24477386 -14.54432011
1 29.55342484 -40.8205719 -16.0708046
3 30.05976295 -39.79001617 -17.16668701
1 27.51808739 -42.34671402 -18.58908653
3 28.6052475 -41.84434128 -19.6666069
1 25.18940544 -43.46398163 -21.15349197
3 25.97610474 -44.24300003 -21.82434464
1 22.34402847 -45.11566162 -23.15428162
3 23.51494598 -46.13106537 -23.55364609
1 20.1089592 -47.00023651 -25.09853554
3 20.71364594 -48.25740433 -24.48438263
1 17.45176697 -48.54272461 -27.09800339
3 17.28441429 -49.77016068 -26.20030594
0 15.42298698 -49.23921204 -28.84559059
2 14.64942074 -49.92650223 -27.92834282
0 -49.87322998 -36.66620636 -27.29009628
2 -51.03861237 -35.97296524 -26.25774002
1 -48.95975494 -38.00492477 -25.17895317
3 -50.44441605 -37.98817062 -24.41147804
1 -47.81459427 -39.59971619 -22.4924221
3 -49.10628891 -40.45100403 -22.13401413
1 -46.60939407 -40.6422081 -19.24736023
3 -47.69482422 -41.97779846 -19.37279892
1 -46.22689819 -41.83429718 -15.58974838
3 -46.38604355 -43.57922745 -15.95150661
1 -45.88834381 -42.78450012 -12.11014366
3 -45.23976898 -44.19849014 -12.54225731
1 -45.08964539 -43.01306915 -8.550303459
3 -44.02112961 -43.86437225 -8.798282623
1 -44.38957977 -43.37018585 -5.005877018
3 -43.16652298 -43.44292068 -5.057723045
1 -44.11166763 -43.04457855 -1.39150691
3 -42.91980362 -42.12808228 -1.512149334
1 -43.6849823 -42.3772583 1.873862624
3 -43.48548889 -41.04572678 1.544556141
1 -43.46950912 -41.26578522 4.878930092
3 -44.03084564 -40.13440704 4.584171295
1 -43.22250748 -39.91112518 8.506633759
3 -44.78968048 -39.18573761 8.325244904
1 -43.49127197 -38.39904785 10.97595978
3 -44.93914795 -38.62799072 10.68083382
1 -43.97053909 -36.04616165 14.20911217
3 -45.11511612 -36.8275795 14.57980919
1 -44.45542908 -33.70252609 17.10278511
3 -45.03308105 -34.75915527 18.07390785
1 -45.0500412 -31.26239014 20.2697506
3 -44.70601273 -32.38159561 21.2283783
1 -45.36201096 -29.62607384 22.85585594
3 -44.15842819 -30.33442116 23.57039833
1 -46.11058044 -28.06241608 25.84767151
3 -44.9237709 -28.00018883 26.17321587
1 -47.07207489 -26.49560165 28.72585678
3 -45.88560486 -25.5217762 28.68888664
1 -47.70288849 -25.43426704 31.52162743
3 -46.98793411 -24.08132935 31.0931015
1 -48.47129822 -24.30375481 34.98835373
3 -48.72597885 -22.81479073 34.49755096
0 -48.24994278 -23.39823532 37.7174263
2 -49.24242401 -22.41193771 37.41651917
