0 32.58797836 32.61675644 35.71757507
1 23.37559891 32.06888199 39.05885315
1 9.495818138 34.62465668 42.02705765
1 -5.135193825 36.77318192 43.66189957
1 -18.76270103 41.16417694 44.39154434
0 -29.56590843 41.16989136 43.97208786
0 28.63267136 -37.94321823 35.95605469
1 17.95628929 -35.3406868 37.129673
1 4.88439703 -33.80640793 38.52844238
1 -10.67473507 -30.570158 40.01145172
1 -23.88711166 -26.47791672 42.12114334
0 -33.19547272 -23.75895882 46.68371964
0 23.40263367 -39.85305786 -44.84124756
1 14.38262272 -38.47877884 -42.77397537
1 1.315033674 -36.73210144 -39.66467285
1 -11.27951241 -34.77270889 -38.14502335
1 -23.25711632 -31.00334167 -33.6648674
0 -33.52468872 -27.07484055 -31.8562603
0 32.30287933 -34.18502045 -30.53995705
1 32.6907692 -23.3547039 -33.56186295
1 38.4340477 -10.482234 -36.06888962
1 43.94114304 3.782912731 -36.85969162
1 45.24116516 18.05454445 -40.19849014
0 46.10908127 28.95102119 -43.08888626
0 29.310812 22.0651474 -47.46549988
1 20.10152817 26.6205864 -46.17920685
1 7.080684662 33.79124832 -46.02827454
1 -5.185977936 37.67290497 -47.1337738
1 -17.26792908 43.59701157 -42.80708313
0 -28.16833878 47.36369705 -40.95397949
0 -48.23091125 -29.40143585 -42.12404251
1 -42.96256638 -19.69617081 -39.75322723
1 -38.95706177 -5.614381313 -35.98813248
1 -34.0141983 6.677145481 -34.61798477
1 -30.7467289 20.33822632 -34.91956711
0 -28.19400978 29.20450401 -39.75053406
0 -43.80993652 39.02975845 -36.12006378
1 -40.67116928 38.79720688 -26.53834343
1 -37.10160828 39.28363037 -12.55654526
1 -33.56179047 41.09305573 1.187950134
1 -30.79752541 42.15784454 14.05449867
0 -29.46374512 41.83779144 25.34072876
0 -51.7265625 -24.21667099 45.4234314
1 -47.41608047 -13.912673 44.63760757
1 -43.38705444 0.3012539148 41.85092163
1 -36.7514801 11.21413803 37.70123672
1 -28.62871742 21.28839684 35.40822983
0 -20.80713463 28.16986275 35.73387146
0 31.87245178 34.48797989 -33.91244888
1 30.42723656 33.50025177 -23.12359047
1 29.5194912 31.76444817 -8.880099297
1 33.61088562 37.45733261 4.152610302
1 37.47371674 42.2028389 16.69302368
0 38.54139328 47.47171021 27.28865051
0 50.01974869 39.09870529 39.58300018
1 51.45001984 28.52552605 39.16507721
1 51.64640427 14.66024971 38.00498962
1 46.5341835 0.2184035033 37.00905228
1 40.29766464 -12.14803219 41.28706741
0 32.7146225 -21.89264488 44.64605713
0 36.64081573 -24.14241219 26.70461082
1 35.37733459 -26.17814445 16.1346035
1 32.11293411 -29.08018684 3.010429382
1 28.13201141 -35.4219017 -8.908454895
1 26.87598419 -43.83817291 -20.32957649
0 24.28422356 -50.03503036 -28.59026527
0 -46.49758911 -40.06259155 -28.0395546
1 -46.40602112 -38.04702377 -16.91826057
1 -46.30669022 -36.18848038 -2.707785845
1 -42.831707 -34.4540062 11.17446041
1 -39.8199234 -36.4570961 26.3298893
0 -41.06618118 -38.55836868 37.10554504
