0 -30.10415077 -46.11477661 -30.76965714
3 -28.7550621 -46.21499634 -30.40691948
1 -29.56507492 -41.29987717 -31.76196289
4 -27.95908546 -41.02882385 -32.10521317
1 -29.22416878 -37.60943222 -32.42416382
4 -27.95125198 -37.87309265 -33.48592377
1 -29.57173157 -34.2028656 -33.00067139
4 -29.32514381 -34.25822067 -34.63021469
1 -29.82605743 -30.15270233 -33.29147339
4 -30.52511978 -30.32909203 -34.81749344
1 -30.06237602 -27.36652374 -33.31404114
4 -31.35960579 -27.34869385 -34.29203796
1 -30.1258812 -24.19676971 -33.16993713
4 -31.59018517 -24.15050888 -33.38603592
1 -30.06052208 -21.09791183 -32.89207458
4 -31.47090149 -21.2261219 -31.91629219
1 -29.84512711 -17.35676003 -32.2072258
4 -30.28826523 -17.44304848 -30.94246101
1 -29.88825989 -13.30242443 -31.25121689
4 -29.33101082 -13.73946285 -30.05044556
1 -29.82876587 -9.749627113 -30.26726723
4 -28.70711899 -9.856245995 -29.21744156
1 -30.45849419 -6.663661957 -29.27775574
4 -28.83228874 -6.272294044 -29.04616165
1 -30.94886208 -3.577454329 -28.36665726
4 -29.54536438 -3.198946476 -29.10903358
1 -31.16182899 -0.2086320072 -27.45406151
4 -30.722435 0.2040915787 -28.84996033
1 -31.12455559 2.800128937 -26.45148849
4 -31.31016731 3.451417208 -27.86918068
1 -31.08850479 6.38637495 -25.16938972
4 -32.10877991 6.932603836 -26.22843361
1 -30.61320114 9.433982849 -24.20016861
4 -32.05153275 9.644087791 -24.53048515
1 -30.25727463 12.4464283 -23.25275612
4 -31.65932846 12.35612106 -22.93941689
1 -30.10226822 15.26603413 -22.29676437
4 -31.41715813 14.81303215 -21.05845642
1 -30.03604126 18.57224083 -21.28298378
4 -30.54804611 18.3507328 -19.9572773
1 -30.33546638 21.93084908 -20.08526993
4 -29.90569687 21.38140488 -18.6673851
0 -30.67266464 25.7980175 -18.61153984
3 -29.21098328 25.6896286 -17.96997833
0 -5.507296085 10.07385731 51.86613083
3 -4.131798267 9.720129967 51.56311798
1 -6.022565842 13.21599293 49.59358978
4 -5.42778635 12.81637478 48.3722496
1 -6.732893467 16.60451508 47.66366959
4 -6.810012817 15.97948837 46.28819275
1 -7.557750225 19.68933105 45.63968658
4 -8.631162643 18.85848427 44.55077362
1 -8.51911068 22.89015198 43.67937851
4 -10.03976631 22.21485329 43.71379471
1 -9.444779396 25.85118675 41.8976326
4 -10.67012691 25.97239304 42.53948212
1 -10.82649231 28.34881592 40.15242004
4 -11.55997658 29.19703674 41.0730896
1 -12.05695248 30.29634476 37.25455856
4 -11.84845257 31.59685898 38.15429688
1 -13.83772659 31.86567688 33.97874451
4 -13.37926006 33.02611923 34.15458298
1 -15.70203018 33.09603882 31.53556442
4 -14.22076321 33.90619278 30.93714714
1 -17.73987389 34.17350769 28.75139427
4 -16.38568306 34.13909912 27.81224251
1 -19.89248657 35.42753601 25.91435051
4 -18.95482063 34.68820953 25.21253777
1 -21.46850777 36.2469368 23.07278633
4 -21.49856377 35.10428619 22.5923233
1 -22.86257172 37.29084778 19.5310154
4 -23.45835495 35.89587021 19.3599968
1 -24.47708702 38.01189804 16.47191048
4 -25.70934486 37.04070282 16.76830482
1 -25.68492699 38.05514145 14.06709957
4 -27.0658226 38.06718826 14.63276386
1 -27.52249908 38.58758926 10.71814442
4 -28.57193947 39.20965958 11.40928555
1 -29.12432098 38.78638458 8.035779953
4 -29.45441246 40.27349091 8.613217354
1 -30.68697739 38.75527191 5.334444046
4 -30.07234001 40.12725067 5.174183846
1 -32.2019577 39.09653473 1.435934901
4 -31.03018951 40.00559998 1.042229772
1 -33.66469955 39.02713394 -1.252414227
4 -32.06769562 38.85147476 -1.644061685
0 -35.15833664 38.78700256 -5.42265892
3 -33.95830917 37.76444244 -5.226528168
0 37.68179321 6.1339674 -24.02743149
3 37.05595398 5.560199738 -22.82802963
1 34.0727272 8.904017448 -24.45929146
4 34.22241211 9.314723015 -23.21960449
1 31.6658802 11.44448853 -25.02323532
4 32.5381546 12.17157841 -24.06629181
1 29.21233559 14.36299133 -25.79376411
4 30.28182793 15.32881355 -25.76711082
1 26.73994827 16.91765976 -26.27279854
4 27.50368309 17.5574646 -27.03761292
1 23.48725319 19.7937088 -26.35330582
4 23.68401337 19.81993866 -27.58184624
1 20.75701141 21.72591782 -26.70387268
4 20.60616302 21.34025002 -28.05004501
1 17.87159348 23.84152412 -26.75340843
4 17.1610775 22.75808525 -27.48474312
1 15.04050064 25.89887619 -26.87433052
4 14.18037319 24.51613617 -26.8537674
1 12.33416748 28.06734657 -26.78560066
4 11.43889618 27.11943245 -26.03043556
1 9.856519699 29.9766407 -27.49594879
4 9.339857101 29.58692551 -25.92156982
1 6.738292217 32.19160843 -28.27904892
4 6.579760551 32.81110001 -26.91604233
1 3.72650671 33.97562408 -28.74600601
4 4.322831154 35.17071915 -27.90875626
1 0.6890974045 36.1616478 -29.1354351
4 1.400365472 37.57764435 -28.70813942
1 -1.685342193 37.30686188 -28.90353584
4 -0.9868109226 38.70716858 -29.39967537
1 -5.405841827 39.21460342 -28.0253582
4 -5.036486626 40.5512619 -29.04854393
1 -8.601723671 40.37672424 -27.24738503
4 -8.837109566 41.06253815 -28.86526489
1 -12.22029972 41.3110466 -25.99666405
4 -12.74609756 41.16988754 -27.49955177
1 -15.67228699 41.82954788 -24.68701553
4 -16.21717262 40.81798172 -25.78397942
1 -19.09818268 42.16051865 -23.54831505
4 -19.39405632 40.77812958 -23.89773941
1 -21.59234428 41.89580154 -21.92894554
4 -21.35473442 40.52724838 -21.78769302
0 -25.61491013 40.95737839 -19.74690437
3 -24.67264175 40.23979187 -18.62955475
0 49.61387253 11.36493111 -16.99142075
3 51.02389908 11.07472992 -16.02025414
1 47.43663788 11.01812172 -12.80506516
4 48.46343613 11.6737957 -11.92752552
1 45.58558273 10.70489979 -9.4487257
4 45.98584366 12.16898251 -8.86276722
1 43.50813293 10.0283041 -6.353140354
4 42.79999542 11.38595486 -6.245355129
1 41.56082535 9.242370605 -3.523470402
4 40.46746826 10.12691402 -4.169864178
1 39.42462921 8.392111778 -0.3333923817
4 38.37697601 8.243325233 -1.107131958
1 37.8109169 7.512608528 2.360682726
4 37.13593292 6.654798985 1.610748768
1 36.24110031 6.809227467 5.338657379
4 36.39699554 5.273605824 4.812824726
1 35.05386353 6.342357635 7.808468342
4 35.98733902 4.965877056 8.022760391
1 33.72548294 5.749948978 10.62767792
4 34.97668076 5.028195381 11.23852348
1 32.10593414 5.561905861 13.94775009
4 33.43503189 5.659370422 14.64697838
1 30.42815018 4.953087807 17.5928669
4 31.40582275 6.025474072 18.36380196
1 28.80778694 4.513539791 20.77132797
4 29.23450851 6.075428963 20.7945919
1 27.56368637 4.061806679 23.36053658
4 26.92214775 5.401930809 23.52748299
1 25.23845673 3.354207039 26.94804573
4 23.92074394 4.13600111 26.05793953
1 23.40468788 2.494868517 29.235466
4 22.1209507 2.187576532 28.40201569
1 21.75151062 1.818499446 31.35801888
4 20.8985424 0.8442399502 30.37172127
1 19.67814064 0.9626109004 34.39697647
4 19.65886307 -0.4222332537 34.01950455
1 17.96856499 0.3585820198 38.01311111
4 18.59390068 -1.212801218 37.89864349
1 16.22539711 -0.2704164088 40.73757172
4 17.43728256 -0.8415558338 41.21284485
1 14.53791428 -0.8234786391 43.55865479
4 15.69295692 -0.6572878361 44.39920425
0 11.61030197 -1.925499916 46.86828613
3 12.16938019 -0.7493720651 47.5693512
0 -34.72576904 -42.3763237 -16.31571007
3 -34.39885712 -41.132061 -17.25398064
1 -33.23279572 -40.62659454 -12.2761879
4 -33.64146042 -39.04257202 -12.74716949
1 -32.30113983 -39.30262375 -9.55812645
4 -33.64820862 -38.61574936 -9.574406624
1 -31.09020805 -37.65899658 -6.71361351
4 -32.20753098 -37.53754044 -6.068020821
1 -28.38826561 -36.18232727 -3.297185183
4 -29.41001892 -36.69639206 -2.261244535
1 -26.47912598 -35.48854446 -0.9233652353
4 -26.99603653 -36.89842606 -0.3306054473
1 -24.3529892 -34.10165024 2.68985939
4 -24.21228409 -35.40512848 2.923487425
1 -22.1153717 -32.65125275 5.863112926
4 -20.94430542 -33.81375504 5.699380875
1 -20.38442039 -31.10220909 8.946746826
4 -19.01215935 -31.65806198 8.488542557
1 -18.71392059 -29.43940353 11.68289757
4 -17.49982452 -29.14269257 10.82459831
1 -17.27594185 -27.5627346 14.28419971
4 -16.58251381 -26.52515602 13.03290939
1 -16.05827904 -25.93183899 16.1216507
4 -16.08432961 -24.63136292 15.16329288
1 -14.79576302 -23.92162895 18.57835197
4 -15.81898975 -23.05615616 18.08574867
1 -13.27200127 -21.25149918 22.03956985
4 -14.30684376 -20.86588478 22.21114159
1 -12.24590206 -19.08542824 24.64539528
4 -13.57989788 -19.14896393 25.27358818
1 -11.6009388 -16.95162392 27.04289818
4 -12.41111088 -17.92411041 28.25537109
1 -11.05834675 -15.14508247 29.99342346
4 -11.01491737 -16.35398674 30.78239632
1 -10.3682766 -13.31053638 33.40633392
4 -9.23021698 -14.40218067 34.0921402
1 -9.583964348 -11.02198601 36.48860931
4 -8.0826931 -11.35146999 36.38754272
1 -8.647334099 -8.20968914 39.05189133
4 -7.281818867 -8.02306366 38.38694382
1 -8.119621277 -6.093047142 41.12491608
4 -7.343388557 -5.209973812 40.22380447
0 -8.096261978 -3.236419201 44.18765259
3 -8.816536903 -2.258100033 42.99081802
0 -21.5987854 -55.29409027 -22.15100098
3 -21.64020157 -55.89694595 -23.44153976
1 -17.85547256 -53.52336121 -22.94814873
4 -18.44836235 -53.19039917 -24.45062828
1 -15.21333027 -51.55662537 -23.24015999
4 -15.95859432 -50.51941681 -24.24373245
1 -12.46912575 -49.51779556 -23.81604958
4 -13.32216358 -48.14938736 -23.78354454
1 -9.467412949 -47.62137604 -24.42675591
4 -10.23680592 -46.33325958 -23.48574448
1 -6.97451973 -45.21744919 -25.61634636
4 -7.050506592 -44.80250168 -24.38997459
1 -4.583274841 -42.66292191 -26.90111542
4 -4.256371975 -42.35335922 -25.44229889
1 -2.442365885 -40.23958588 -28.12090492
4 -1.485700488 -40.7112236 -27.07916069
1 0.1142085865 -37.52018356 -29.18630791
4 1.442704678 -38.29621887 -28.77580833
1 2.459391117 -34.86492538 -29.89670181
4 3.478493929 -36.07526016 -30.26862907
1 4.705097675 -32.04418564 -30.50467491
4 5.527919769 -32.72958374 -31.73187828
1 6.330970764 -29.32804108 -31.1164875
4 6.374914169 -29.33789825 -32.53152466
1 8.558479309 -25.59430313 -31.39705849
4 8.081573486 -25.18092346 -32.88085175
1 10.81820774 -22.96786308 -31.43057442
4 9.512759209 -22.18624115 -32.16020966
1 12.80925655 -19.15258026 -31.72139931
4 11.55411148 -18.36367226 -31.60255051
1 14.29094315 -15.83325672 -32.37220383
4 13.44644833 -15.43235874 -31.25961113
1 16.77874184 -12.63906288 -32.4380455
4 16.50345612 -12.38104343 -30.91868591
1 18.57532883 -9.620210648 -32.53181076
4 19.11616707 -10.06088543 -31.21085739
1 20.66177559 -6.546148777 -32.85402298
4 21.93712616 -7.294728279 -32.38178253
1 22.53804016 -3.965631723 -33.42951584
4 23.78672791 -4.854670048 -33.8168602
1 24.17625046 -1.870437026 -34.67156601
4 24.61769485 -3.015126705 -35.69012833
0 27.02695847 1.196053505 -36.94601822
3 26.32262802 0.3426024914 -38.31843948
5 -32.16431427 33.95844269 -21.94898415
5 36.84763718 1.626925349 -33.07260132
5 -23.55735207 -62.31484222 -14.77614689
5 -23.01401711 -67.70611572 -17.48319626
5 -19.17491531 -68.20527649 -21.66711426
5 -16.7050457 -68.14812469 -26.17773628
5 -15.15132999 -66.31404114 -31.33576202
5 -21.78786469 -68.33726501 -44.37148285
5 -23.99543953 -63.14816666 -42.75304794
5 -26.40589523 -61.9439888 -38.6037941
5 -30.56805611 -59.51269531 -36.55919266
5 -32.10481262 -55.695755 -32.03886795
5 -37.84646225 -46.06847 -24.73565674
5 -9.722184181 1.140732765 53.82775879
5 -40.4491806 36.93131256 -12.41663456
5 -45.92750549 36.6460762 -12.45316315
5 -50.58457184 34.53542709 -10.97273827
5 -54.04200363 30.22411728 -12.2952528
5 -56.73884583 26.21612549 -10.23138809
5 -54.31044388 15.57220364 -18.49081039
5 -50.12633514 14.62200642 -15.70701981
5 -46.57526398 16.48617744 -13.24647999
5 -41.54727554 19.06445312 -11.52724075
5 -39.33938599 24.47122002 -13.31359482
5 2.188244343 -1.565538883 43.33919525
5 -29.65403366 -51.28278351 -17.63421822
5 30.42705917 10.34151745 -40.24403
5 34.89310455 12.97422314 -40.47375107
5 40.41609192 14.90524387 -39.82211685
5 43.71986008 15.24800777 -35.81259537
5 49.38492584 15.07526207 -37.8742218
5 58.66972351 24.83267403 -35.13134766
5 55.33804321 26.94977379 -30.60845757
5 51.78155899 25.53200531 -30.18415642
5 52.42551804 21.21185684 -27.37759972
5 50.06107712 18.34055901 -23.99517632
5 46.45664597 3.085210562 -22.9572773
5 -32.09834671 45.03741074 -13.02169991
5 -6.822344303 10.40276814 62.03608322
5 -8.99344635 5.785805225 64.3353653
5 -5.859219551 5.345105648 69.52724457
5 -2.127109528 1.404833674 69.22026062
5 0.001470882795 -2.554836512 70.20201874
5 11.87243176 -8.728790283 68.79651642
5 16.58731842 -11.77704716 66.70713043
5 15.84584618 -14.71187592 62.31390762
5 11.46616077 -13.02105808 58.66748047
5 11.40018082 -9.862549782 53.51603699
0 -15.95100975 -73.96973419 -38.01589203
3 -14.73832321 -74.17349243 -38.10230255
1 -17.13138199 -77.66094971 -35.959095
4 -15.6474123 -77.73461151 -35.2689209
1 -17.75177574 -80.38845062 -34.46344757
4 -16.80418396 -79.84326935 -33.12535477
1 -18.46804237 -83.41947937 -32.64157486
4 -18.36494827 -82.74355316 -31.12413788
1 -18.84841347 -86.4753952 -31.2760601
4 -19.66970444 -85.48129272 -30.15452003
1 -19.27085876 -89.70896149 -29.47030258
4 -20.63872528 -89.34304047 -29.18952942
1 -19.20665741 -92.753479 -27.45413971
4 -20.81132889 -92.89279175 -27.88336563
1 -18.91438293 -95.86963654 -26.27264404
4 -19.76112366 -96.27215576 -27.41096878
1 -18.26491356 -99.48586273 -24.74411201
4 -18.16186333 -100.018364 -26.38486481
1 -18.22735786 -102.4096909 -23.28602791
4 -17.41997528 -102.9162369 -24.43598175
2 -18.08183098 -105.9377594 -21.99776268
3 -16.81777 -105.9668655 -22.41434669
0 -62.38368607 21.67481804 -16.24341774
3 -63.67848587 20.81568336 -15.9764061
1 -64.62971497 24.99592972 -17.59576035
4 -65.53322601 24.93806458 -16.28798866
1 -67.12820435 28.35063171 -18.94987488
4 -67.45217133 28.70019341 -17.46232605
1 -69.20257568 31.28138542 -19.65515137
4 -68.69665527 32.20134735 -18.22997475
1 -71.42762756 34.11480331 -20.40502548
4 -70.5291748 35.30618286 -19.68374634
1 -74.38787842 37.30247498 -21.25442505
4 -73.44704437 38.02509689 -21.65743256
1 -76.87244415 39.67106247 -22.19049835
4 -75.97174835 40.04987335 -23.47193527
1 -79.71459198 42.29476547 -22.85050774
4 -79.367836 42.1833725 -24.42128754
1 -81.84286499 44.52456665 -23.44853783
4 -82.75071716 44.14743423 -24.97340393
1 -84.07430267 47.64813995 -23.48195648
4 -85.3490448 46.94918442 -24.12069511
2 -86.298172 51.41555023 -23.56494904
3 -87.17715454 50.27174759 -23.25886154
0 58.07650757 16.42564011 -40.83143616
3 58.68288422 15.18276882 -40.01693726
1 62.24637604 16.20346069 -44.15104675
4 62.07302856 14.68849373 -44.32309341
1 65.13601685 15.53208733 -46.59764481
4 64.29800415 14.42708683 -47.16972351
1 67.82987976 14.54545403 -48.48751068
4 66.92736053 14.11713219 -49.70478058
1 71.20310974 12.92847061 -50.32125092
4 70.28409576 13.13879299 -51.82040787
1 74.04866791 11.49800301 -51.89757538
4 73.76880646 12.29304695 -52.98016739
1 76.88022614 9.961546898 -52.88932037
4 77.27139282 11.14135075 -53.48832703
1 80.13061523 8.533679008 -54.79877853
4 80.81349945 9.882338524 -54.43638229
1 82.92014313 6.902422428 -56.89188385
4 83.85701752 7.777037144 -56.01799011
1 85.79135132 5.407250404 -58.50447464
4 86.32051086 5.636111736 -57.35044479
2 89.0595932 3.518451691 -60.23271179
3 89.27496338 3.114602566 -58.59936905
0 4.694741249 -7.570815563 75.56528473
3 4.82465744 -6.628286362 77.00366211
1 3.818046808 -11.93101311 77.53125763
4 2.679569721 -11.34441853 78.78531647
1 3.20710063 -14.91237354 78.86456299
4 1.744943738 -14.82501221 79.34191132
1 3.33558774 -18.85021973 80.452034
4 1.82280004 -18.92260361 80.02506256
1 3.603754044 -21.51472855 81.60652924
4 2.725390911 -22.07795525 80.47673035
1 4.151900768 -25.05607796 82.71946716
4 4.038545609 -25.55760956 81.52777863
1 4.782431126 -28.00399971 84.07302094
4 5.690012455 -28.40970993 82.81116486
1 6.023110867 -31.32687569 85.53952789
4 7.292673588 -30.88125038 84.86605072
1 7.265381813 -34.23631287 86.73022461
4 8.46903801 -33.66847229 86.95259857
1 8.666625977 -37.17516708 87.68897247
4 9.424146652 -36.46546555 88.80071259
2 9.918936729 -39.83319855 88.44186401
3 9.899500847 -39.22587204 89.80327606
6 -54.43496323 -113.5741653 -19.33643723
7 -55.35427094 -117.9806976 -20.02820587
7 -52.68811798 -118.711998 -25.58987427
7 -47.09799576 -117.8497314 -26.80214691
7 -42.55930328 -120.1807175 -27.40903854
7 -40.26893997 -118.6541138 -22.11339188
7 -37.37773132 -117.0044937 -26.17419052
7 -31.58251762 -116.3131485 -28.36585617
7 -26.14915085 -114.7236176 -26.66970062
7 -22.48936653 -113.7416763 -22.7449913
6 -95.33943176 89.50450897 -29.56848907
7 -92.56826019 88.69773865 -29.35499954
7 -87.45681 89.74094391 -27.06804657
7 -84.21219635 88.95108032 -22.89601135
7 -81.40792847 83.31476593 -24.58461952
7 -82.02031708 78.35322571 -24.67846107
7 -81.69376373 73.33448792 -22.54474831
7 -82.48353577 67.14520264 -23.99376869
7 -86.53900909 63.13605499 -25.56847
7 -89.8859787 58.54743576 -25.57352829
6 92.0855484 0.9252029657 -93.58411407
7 91.63922882 -0.2314922959 -90.6884079
7 90.46995544 4.677525043 -86.77144623
7 90.87776947 9.12417984 -82.08795166
7 91.52139282 12.91465092 -78.13034821
7 96.42751312 12.84568214 -76.17253113
7 97.38031006 7.801195145 -79.41937256
7 98.86569214 7.303872585 -73.20479584
7 99.15492249 7.955931187 -67.13206482
7 96.83721924 4.416176796 -65.08338928
6 26.61180305 -27.33778 107.0600739
7 29.9848671 -27.18626976 103.9387817
7 29.81955528 -27.2233448 98.78733826
7 31.55996704 -30.20686531 93.54035187
7 29.33111382 -33.1609993 89.12648773
7 25.90610504 -38.40192032 89.02874756
7 25.55991554 -43.75002289 89.93418884
7 21.02082443 -47.28286743 91.78691101
7 17.57916069 -50.24855042 89.39178467
7 16.21396637 -44.7854538 86.88026428
