0 -37.39434433 -44.70786667 -27.0022049
1 -34.11317062 -31.20222664 -30.85058022
1 -32.81022263 -17.30232811 -27.17038155
1 -31.01876831 -5.170521259 -23.56831551
1 -27.27481842 8.21177578 -23.75205231
0 -22.75147247 21.64699936 -22.27852058
0 -8.537758827 16.43567467 53.87100601
1 -11.20688057 25.42486763 43.81241989
1 -16.9880867 33.39450073 32.37033844
1 -23.20558739 41.46380997 21.74149513
1 -27.98116875 48.79559708 11.06124401
0 -27.49469185 57.32384872 -0.8471696377
2 34.06700134 23.17632103 -23.86303902
1 24.49707603 29.75408745 -21.40450478
1 11.31776524 35.96035767 -21.17899704
1 -0.1284214109 43.78248596 -24.7500782
1 -13.34912682 48.1473999 -25.18802071
2 -25.62305641 45.38707733 -24.54331017
0 37.04442978 10.09010506 -10.04243374
1 31.28099442 5.460009098 3.24705267
1 29.31996918 3.469963312 15.19741344
1 24.19214058 0.03131170943 29.01127052
1 19.50363922 -5.589074135 41.64823151
0 12.79824924 -13.08417702 51.69591141
2 -34.46012497 -39.9238472 -6.091441631
1 -29.72128487 -32.43318176 2.415973663
1 -22.25059128 -25.49287605 13.21150494
1 -16.37891388 -17.7395649 23.73365402
1 -11.04483604 -13.73514557 36.82032394
2 -8.833871841 -11.46970844 49.76436996
0 -11.77793312 -45.74461746 -12.63796711
1 -5.144148827 -36.05466461 -20.04437828
1 5.3864398 -27.63014793 -25.15215302
1 16.49913216 -18.42760468 -27.38730812
1 25.75832748 -8.593004227 -31.40550804
0 35.47052383 1.612333417 -36.0379982
6 -31.75172615 33.20438766 -27.23256111
6 24.95627785 13.46614552 -29.04071426
7 -16.3883934 -61.60609055 -24.07515144
7 -30.08067894 -60.62731552 -21.29134941
6 -40.15833664 -34.70415497 -16.06052971
6 -12.98021412 0.001793569769 54.56508636
7 -44.1389122 51.73217392 -14.38787746
7 -36.34380341 17.73524284 -5.785538673
6 5.121890068 -10.59758568 50.69277954
6 -24.37186623 -33.33898544 -14.97963047
7 56.63694763 -0.5513409376 -41.34666443
7 51.27930832 -1.542765498 -21.45127487
6 34.14191818 9.099122047 -19.06377029
6 -19.48204231 51.87446594 -12.97187233
7 -12.35968208 3.884140968 72.29995728
7 29.22659874 -8.107964516 58.39591599
3 -17.33454704 -68.17294312 -42.82178497
4 -23.90345001 -81.40517426 -34.42692566
5 -30.17299843 -92.08699799 -21.85894203
3 -46.97158813 37.22818375 -14.00969696
4 -63.05516052 43.16496658 -19.15800285
5 -79.71116638 49.91024399 -24.65969467
3 57.1138382 5.117731571 -35.03763962
4 72.74682617 7.588345528 -43.32297516
5 88.16106415 4.015919685 -49.88560104
3 10.20063877 -6.902227879 73.71604156
4 21.94959259 -19.86052322 70.61264038
5 33.57870483 -33.28413391 68.41345215
8 -43.67430496 -88.34594727 -42.06404114
9 -31.38111305 -103.2436371 -33.17643356
8 -88.45628357 59.11932755 -11.09613705
9 -75.97310638 73.60079956 -12.90954685
8 87.66414642 -6.023100376 -94.32653046
9 86.83215332 2.323807478 -75.96948242
8 38.1830864 -29.3193512 87.94876099
9 35.64025116 -43.69905472 94.71305847
