0 -35.32845688 -44.84346008 -25.43039703
3 -33.62209702 -44.43674469 -25.39771461
1 -34.58201599 -40.64380264 -27.03102493
4 -33.50526428 -41.09654999 -28.0983448
1 -34.37674713 -37.54549789 -27.96609879
4 -34.0485611 -37.98725128 -29.26018333
1 -34.26610184 -33.73430634 -28.96197701
4 -34.80994797 -33.97882843 -30.42424011
1 -33.73943329 -30.29501152 -29.42780113
4 -35.1329155 -30.22815895 -30.12199593
1 -33.51966476 -26.9895916 -29.63516808
4 -35.16333389 -26.86862946 -29.47420883
1 -33.47437668 -24.02280807 -29.89019966
4 -34.90884781 -24.15028572 -28.9016571
1 -33.46751785 -20.20493507 -30.06640244
4 -34.67833328 -20.26481247 -28.63448524
1 -33.57796478 -16.63013077 -30.40379333
4 -33.57579422 -16.42822838 -28.69509697
1 -33.61565399 -12.81693649 -30.48954391
4 -32.84529114 -12.70291615 -29.37905884
1 -33.68519211 -9.350312233 -30.61669731
4 -32.15847778 -9.613976479 -30.1805687
1 -33.53173065 -5.265628338 -30.72404861
4 -32.10550308 -5.304059982 -30.99841881
1 -33.25464249 -1.944788575 -30.43107224
4 -32.2754097 -2.16553998 -31.53439713
1 -33.23153305 1.939823985 -30.43153954
4 -33.27561569 2.179857731 -31.93569946
1 -33.73480606 5.726450443 -30.26517677
4 -34.33374405 5.80296278 -31.33482552
1 -33.73727798 9.244275093 -30.42280006
4 -35.27536774 9.301615715 -31.04108429
1 -33.66964722 13.03466225 -30.36942482
4 -35.07875061 13.13603306 -30.20269012
1 -33.59561157 16.53567696 -29.79623413
4 -34.80751038 16.31598663 -28.63707733
1 -33.41325378 20.63387489 -28.90871811
4 -33.60530853 20.23639107 -27.40833282
1 -32.80603027 23.98984528 -27.56186485
4 -32.59329605 23.00066185 -26.39624405
1 -31.50259018 27.51138878 -25.20849037
4 -30.45186043 26.73496056 -24.58964539
0 -29.7984333 30.7154274 -23.10974121
3 -28.40164185 30.39905357 -23.54287338
0 -1.96939528 12.75087547 54.03054047
3 -1.106063843 12.91574764 53.04496384
1 -4.857940197 14.2894392 51.73355484
4 -4.477720737 13.3610096 50.40922928
1 -6.997601509 16.01580811 49.28151321
4 -7.271071434 14.75403118 48.47324371
1 -8.79628849 18.11203575 46.72605896
4 -10.09900951 17.08356667 46.56519318
1 -10.33257866 19.93979263 44.40325165
4 -11.74252033 19.78957939 45.01606369
1 -12.24638653 22.34116173 41.91252518
4 -13.14770985 22.65452766 42.95078278
1 -13.49022961 24.51968956 39.32089615
4 -13.9227457 25.57556343 40.28499603
1 -15.49160576 26.34048843 36.66265488
4 -15.26710701 27.95615387 37.17663956
1 -17.1744442 28.02691269 34.05882645
4 -16.25708389 29.02274513 33.87184906
1 -18.52846718 29.32286072 31.33156586
4 -17.1727314 29.822155 30.95083427
1 -20.04868317 31.53647804 27.96915054
4 -18.81689072 30.98170662 27.07910728
1 -21.09216499 32.84753799 25.33636856
4 -20.52022171 31.9362545 24.52255821
1 -21.91254997 34.86829758 22.31554031
4 -22.51712608 33.62931061 21.57869148
1 -22.38804817 36.73091507 18.48996735
4 -23.83047485 35.78928375 18.27708054
1 -22.81534386 38.59093857 15.06060791
4 -24.03882599 38.47070312 15.05954456
1 -23.22465706 40.75205231 11.78724003
4 -24.3992424 41.53493118 12.58945179
1 -24.18579865 42.45140457 8.481788635
4 -24.7429409 43.74252319 9.205582619
1 -25.11798859 44.27441788 5.597854614
4 -24.53613663 45.47252274 6.267161369
1 -25.97662926 45.81896973 2.621984243
4 -25.11490822 47.03249741 2.818906307
1 -26.79179764 47.02862167 -0.5084437132
4 -25.31753922 47.54391098 -0.792666018
1 -27.52508163 47.89206696 -3.514220715
4 -26.16363525 47.53285217 -3.793212891
0 -28.47825813 49.05151749 -7.62441349
3 -27.69970131 47.53923035 -8.253176689
0 35.53212738 10.23682213 -19.80534172
3 34.41064453 9.929133415 -18.63117027
1 33.42641449 14.13449001 -20.0973835
4 32.92126083 14.28613281 -18.6450386
1 31.62751961 16.88127136 -20.7090683
4 32.25518417 17.43742752 -19.34511948
1 29.15732765 19.56715775 -21.52238846
4 30.37576294 20.61377144 -21.01958275
1 27.2188549 22.26389503 -21.98551369
4 28.65054703 23.15760803 -22.45334816
1 25.21946526 24.73429298 -22.17416573
4 26.07283783 25.37803078 -23.40283394
1 22.85614586 27.13098526 -22.01840019
4 23.11821747 27.36301422 -23.59897041
1 19.92713928 29.38409233 -21.46401024
4 19.39887619 28.88710976 -22.94942856
1 17.07458305 31.68624115 -20.95090485
4 16.10304832 30.65590096 -21.5177803
1 14.85872459 33.17420578 -20.80348778
4 13.71985149 31.89206123 -20.32754326
1 11.88893986 35.39300156 -20.89913177
4 11.25873756 34.3155899 -20.12119675
1 9.406179428 36.92707443 -20.49436188
4 9.14229393 36.23294067 -19.29652977
1 6.041076183 38.37875748 -20.29265213
4 6.078674316 38.63101196 -18.88097572
1 3.103981495 39.75267029 -20.38927078
4 3.323328257 40.83003998 -19.49085236
1 -0.3330101669 41.15848541 -20.44837379
4 0.505597055 42.44054794 -20.43252754
1 -3.592618704 42.7343483 -20.45454216
4 -3.015293837 43.73583603 -21.4048481
1 -6.275084972 44.06345367 -20.46953011
4 -6.105267525 44.47964478 -21.95898628
1 -9.231246948 44.83073425 -20.70441628
4 -9.355900764 44.2025795 -22.00468254
1 -12.88033104 45.43344116 -20.52899361
4 -12.81853008 44.21425247 -21.59910583
1 -15.99945831 45.45088959 -20.66268158
4 -15.92442608 44.07615662 -20.89747238
1 -19.3800087 45.3683548 -20.48276901
4 -19.05850601 43.84084702 -20.20331001
0 -23.17025948 45.04694366 -19.98143387
3 -22.76772118 44.15219879 -18.63900948
0 49.95378876 5.847630501 -12.36625576
3 51.43893814 4.843917847 -11.99324703
1 47.75022507 6.312892914 -7.7625103
4 48.97360992 6.164947987 -6.97923851
1 45.74789047 6.793498516 -4.144516945
4 46.99816895 7.603081703 -3.459521294
1 44.03404999 7.228859425 -1.407417774
4 44.42626572 8.632537842 -1.158005834
1 42.19575882 7.049882412 1.470062494
4 41.68475723 8.729166985 1.339463592
1 40.03932571 6.806837082 4.658063889
4 38.94767761 8.035737991 4.321398735
1 38.36571884 6.171067238 7.057943344
4 37.13880539 6.585384369 6.159493923
1 36.04636002 5.778319359 10.02056122
4 35.05286789 5.452266216 9.119530678
1 34.54458618 5.139928818 12.8916893
4 34.0826416 4.016824722 12.02546597
1 32.50068283 4.36226368 16.1047039
4 32.76910782 3.008021116 15.62834358
1 31.03618431 3.447821617 18.65124893
4 32.03971481 2.401705265 19.00349808
1 29.48811531 2.419081688 21.85194588
4 30.93476486 2.155133009 22.36187553
1 28.01648712 1.405015945 25.17950249
4 29.49471474 1.663716674 26.22307205
1 26.39724541 0.6936120987 28.25025749
4 27.10524368 1.841695189 28.78273582
1 24.69339371 0.07975813001 31.18902206
4 24.75690842 1.900777459 31.54939461
1 22.74871826 -0.7143216133 34.44171906
4 21.88026428 0.6154158711 34.19711304
1 21.02253151 -1.150374055 37.04773331
4 19.75598907 -0.4427890778 36.42599487
1 19.20454979 -1.627888203 39.8344574
4 17.99147606 -1.832910895 38.88055038
1 16.67624474 -1.945435166 43.09631348
4 18.06913567 -1.883796692 43.95700836
1 14.35102558 -2.272373676 46.34633636
4 15.24338627 -1.479155898 47.28091049
1 12.08402443 -2.428376436 49.22771072
4 12.37917328 -0.9474469423 49.49590683
0 8.817797661 -3.46120739 53.15269852
3 8.067925453 -1.966146827 53.0666008
0 -28.02869415 -45.15594482 -11.3237009
3 -27.19626617 -44.44548798 -12.17631912
1 -26.72154236 -41.58858109 -8.209453583
4 -26.87182045 -40.6812439 -9.335021973
1 -25.84531784 -39.73579407 -6.405539036
4 -26.58027649 -38.34838486 -7.136369705
1 -24.85097885 -37.72966766 -4.323034763
4 -26.33602333 -36.83907318 -4.655533314
1 -24.1360054 -35.56671524 -1.854911923
4 -25.24192619 -35.40262222 -1.552633286
1 -22.95078087 -33.13053513 0.6812967658
4 -23.97971535 -33.54850769 1.560072184
1 -22.10531425 -30.15546799 3.083842754
4 -22.62021637 -31.24050331 4.0711236
1 -21.34993172 -27.8813343 5.71465826
4 -21.0699749 -29.05939293 6.275145531
1 -20.72517395 -25.93689728 8.117182732
4 -19.77371597 -26.88949203 8.660152435
1 -19.42829132 -24.38414574 11.19990635
4 -18.09902573 -25.38568115 11.12712574
1 -18.47355843 -23.19501114 14.66866302
4 -17.1114006 -23.12276649 14.27154446
1 -17.40205383 -21.87421036 17.83319473
4 -16.18272972 -21.01755905 16.90625
1 -16.29517746 -20.34030914 20.81447029
4 -15.95518875 -19.07963943 20.2016201
1 -14.8740797 -19.09189224 23.79945183
4 -15.71630001 -17.8533802 23.47535896
1 -13.32450199 -17.39248085 27.23439407
4 -14.29794979 -16.55359077 27.3339138
1 -11.88881874 -16.09615707 29.41253662
4 -13.26336098 -15.82714939 29.96503448
1 -10.71060944 -14.34624481 32.44127655
4 -11.77711487 -14.90850353 33.09044647
1 -9.314759254 -12.36413288 35.26516342
4 -9.631688118 -13.55470848 36.20957184
1 -8.121543884 -9.864912033 38.0558815
4 -7.563400745 -11.10618496 38.68531418
1 -7.249991417 -7.579935074 40.50751495
4 -6.080848694 -8.288744926 40.64293289
1 -6.213951588 -5.379592419 43.05960846
4 -4.893667698 -5.728678226 42.63444901
0 -3.421070576 -2.856877327 46.17685699
3 -2.867416859 -2.195848465 45.03669739
0 -17.61500931 -57.74084854 -20.02838135
3 -18.83163834 -57.05529404 -20.83664131
1 -15.46982574 -54.37976456 -20.17056847
4 -16.38949394 -53.53528595 -19.68684006
1 -13.05018139 -51.63839722 -20.12680054
4 -13.58339882 -51.08755112 -18.87095451
1 -10.63258839 -48.66526413 -20.0301342
4 -10.6603117 -48.55423355 -18.51486778
1 -8.979860306 -45.79180145 -20.27233315
4 -8.325815201 -46.23502731 -19.05241394
1 -7.530028343 -43.17905807 -20.80000305
4 -6.506828785 -43.76785278 -19.74693108
1 -5.598199368 -39.93279266 -20.65063477
4 -4.370166302 -40.44049072 -19.84213257
1 -3.706828117 -37.06209183 -21.19226837
4 -2.725179434 -37.9797287 -21.17506027
1 -1.439341307 -34.36380005 -21.90869904
4 -0.787668407 -35.40030289 -22.71502876
1 1.96443975 -30.97877312 -22.27553558
4 2.211837053 -31.20059776 -23.77710915
1 4.799104214 -28.42355347 -22.79383087
4 4.269563198 -28.33683205 -24.3419857
1 7.425195694 -25.87611771 -23.068573
4 6.419451714 -25.13153267 -24.08919334
1 9.623289108 -24.06151962 -23.5086441
4 8.473814964 -22.59432793 -24.08064461
1 11.96142387 -21.97554016 -24.17241859
4 11.32444954 -20.9520607 -23.60207939
1 14.86366463 -19.53587532 -24.67645645
4 14.39056015 -18.62514114 -23.50846291
1 17.79694939 -17.57743835 -25.69268608
4 18.1813221 -17.32720947 -24.371521
1 20.29818726 -15.54341602 -26.55766869
4 21.18201065 -16.12605476 -25.49578094
1 23.09984779 -13.89278221 -27.38969803
4 24.17550278 -14.97170067 -27.09133911
1 25.88074493 -12.30043507 -27.91450119
4 26.34680939 -13.78100014 -28.24619293
1 28.52668381 -10.45832253 -28.69866371
4 28.73545265 -11.34872627 -29.82555962
1 30.69057846 -7.901060104 -29.5730114
4 30.53906822 -7.976643085 -30.96807671
0 33.24712753 -4.849101067 -30.32380486
3 34.33662033 -5.653338432 -30.37435341
5 -31.6054554 40.90098572 -24.17922783
5 37.39852524 4.028785229 -28.13195038
5 -12.73891354 -65.72533417 -24.62858772
5 -11.94319439 -71.08818817 -24.95180511
5 -7.11614275 -68.5553894 -27.10935402
5 -6.720423698 -65.54768372 -31.41716385
5 -10.44147491 -63.1508522 -34.54444122
5 -22.06745911 -60.09348679 -36.13866425
5 -27.73098564 -58.01813507 -36.76654434
5 -30.65122223 -54.95937347 -37.36009598
5 -35.91316223 -53.01823044 -35.36155319
5 -39.9019928 -51.42150497 -32.28674316
5 -36.75695801 -47.04517365 -15.26827812
5 -4.405822754 3.158227682 53.62203979
5 -38.39565277 48.94820404 -6.141329288
5 -40.86569214 52.60965347 -1.815263391
5 -42.35507202 51.80681229 2.966668844
5 -47.09703445 50.57223892 0.2035488486
5 -48.5990448 48.98630142 -4.458622456
5 -48.12739563 33.21770859 -5.198459148
5 -49.19707489 29.85451889 -9.819709778
5 -44.2841835 30.59573174 -11.96209621
5 -39.14062119 30.04289818 -12.86484146
5 -33.58533859 28.82534981 -14.65448093
5 1.867662907 -9.410433769 51.05475998
5 -24.22035027 -54.97347641 -12.46495247
5 34.76896286 1.283374667 -37.87597275
5 40.05162811 3.568356037 -39.9361496
5 43.4053688 8.127810478 -41.0434761
5 47.71812057 11.75198841 -39.05964661
5 52.85476685 12.03341866 -35.54207993
5 63.34262848 20.38793373 -25.78096962
5 66.27394867 17.11533737 -21.61240196
5 63.36736298 16.16784286 -17.68239212
5 58.97949219 13.4515295 -17.92830276
5 53.24232864 14.36070251 -17.91256714
5 44.48409653 5.040429592 -20.88970375
5 -30.49611473 51.60354614 -17.48502731
5 -1.243605852 7.650295734 62.64017868
5 -0.4383653998 5.43563509 68.38894653
5 0.7577279806 2.073129416 67.63420105
5 0.3613838851 -2.122636318 69.84700775
5 1.234232187 -8.17889595 71.0572052
5 10.58544922 -1.173139453 77.71152496
5 14.0642643 0.08444427699 72.90977478
5 15.56445122 -1.101663709 71.94615173
5 16.16783333 -2.562312365 66.28753662
5 13.90121746 -5.430221558 61.3894043
0 -17.41819954 -68.23397064 -40.29669571
3 -17.28595161 -68.44356537 -41.73564911
1 -17.4534874 -73.10542297 -39.01439667
4 -16.43692398 -73.3612442 -39.92817688
1 -17.26289177 -76.57883453 -38.15857315
4 -15.53120041 -76.50362396 -38.66401291
1 -17.20925713 -79.75023651 -37.67522049
4 -15.56451225 -79.57079315 -36.99291611
1 -17.45925522 -83.6444397 -36.97531509
4 -16.64189911 -83.85951233 -35.85787201
1 -18.27635193 -87.84892273 -36.2561264
4 -18.47364426 -87.95102692 -34.78763199
1 -18.53689957 -90.68044281 -35.72079849
4 -19.20042038 -90.66766357 -34.73994064
1 -18.71971893 -93.85113525 -34.95423126
4 -20.06765747 -93.73519897 -34.30075073
1 -18.39715767 -97.943367 -33.89419174
4 -19.62850189 -98.12746429 -34.36669159
1 -18.2436409 -101.1064758 -33.52084732
4 -19.22978783 -101.2999802 -34.36667633
2 -18.48688507 -104.9106522 -32.64604187
3 -18.89498901 -105.3402557 -34.3421402
0 -54.51555252 40.93015671 -5.419699669
3 -55.53302765 40.62240219 -4.272190571
1 -58.11483383 41.23569107 -7.895175934
4 -58.97795486 42.04272842 -6.82626915
1 -60.99770737 42.23416138 -10.18443298
4 -60.97711563 43.42552567 -9.543431282
1 -63.318573 43.14845276 -12.94685745
4 -62.48813629 44.71038437 -12.69199467
1 -66.02028656 44.59801483 -15.37769604
4 -65.04226685 45.39518738 -15.98680496
1 -68.62971497 45.43863297 -17.88608932
4 -67.37248993 45.75362015 -18.83388901
1 -70.97769928 45.96900558 -19.97797394
4 -70.02121735 45.2624054 -21.13986969
1 -73.08620453 46.69836044 -22.45181274
4 -72.90900421 45.38428497 -23.44228554
1 -75.46417236 47.8637619 -24.30545425
4 -76.09619904 46.16618729 -24.56596565
1 -78.1251297 48.97552109 -26.37263107
4 -78.92218781 47.89319992 -25.78665924
2 -80.90691376 50.11267471 -28.36911201
3 -82.33150482 49.92174911 -27.24959946
0 61.67901993 12.19174004 -32.51903915
3 62.20039749 11.15923786 -31.6456852
1 64.83229065 11.55463028 -35.55794907
4 64.57901764 10.38310719 -35.49786377
1 66.98355103 11.36020565 -37.92350769
4 66.36771393 10.36947632 -38.66114044
1 69.30170441 11.39099216 -40.54203796
4 68.25935364 11.26843262 -41.525177
1 72.03661346 11.07272911 -43.27089691
4 71.40297699 11.95580673 -44.27258682
1 75.10485077 11.02611446 -46.16587067
4 74.62572479 12.30011845 -46.37795639
1 76.95922089 10.6896019 -48.79768372
4 77.37482452 12.15437603 -48.58000565
1 79.3187561 10.27753162 -51.44193649
4 80.40247345 11.06069469 -50.54230881
1 81.43462372 9.435253143 -54.06554031
4 82.89312744 9.230600357 -53.40243912
1 83.54823303 8.668647766 -56.30395889
4 83.98483276 7.43289423 -55.52269745
2 85.86328125 8.007618904 -58.81387711
3 85.62612915 6.638979435 -58.42041397
0 7.443554878 -10.69861507 77.74833679
3 6.620835781 -10.98986721 79.07389832
1 10.20661163 -14.35425186 78.46297455
4 9.069517136 -15.27042294 78.63520813
1 11.79982471 -17.694664 79.22645569
4 11.15890694 -18.22178078 78.33834839
1 13.72779751 -21.4979744 79.77424622
4 13.37694454 -21.79158783 78.14994812
1 15.3164463 -24.7328434 80.32978821
4 15.71917439 -24.66545486 79.01747894
1 16.33359528 -27.57780647 80.87644196
4 17.63996696 -27.13191795 80.16092682
1 17.5530014 -30.54795074 81.3962326
4 18.94686127 -29.9802494 81.6170578
1 19.10609245 -33.77424622 81.71757507
4 19.88309479 -33.47038269 82.979599
1 20.67578506 -37.44884872 82.42921448
4 20.34231186 -37.1146698 83.92218781
1 21.79504967 -41.12708282 83.13586426
4 20.69869423 -41.44255829 84.0977478
2 22.62622452 -44.67842102 83.20606995
3 20.96808624 -44.60723114 83.51324463
6 -40.6492691 -116.2309647 -44.95769501
7 -45.21508026 -117.2490921 -43.56929016
7 -45.2999382 -116.4447021 -37.27766418
7 -40.92573929 -113.0441666 -35.46247101
7 -35.04547501 -114.5700684 -36.35032654
7 -31.23014069 -118.9083176 -38.37277985
7 -32.04259872 -119.8077316 -32.18538284
7 -29.7028141 -116.5894241 -27.42127419
7 -25.18187523 -113.9686279 -24.64367867
7 -20.40266418 -112.3104782 -28.54446411
6 -87.7924118 88.81537628 -25.13940048
7 -84.58207703 88.47354889 -28.54233932
7 -83.29319763 85.27810669 -32.06059647
7 -85.16021729 79.66706085 -32.40852356
7 -88.60010529 75.27188873 -32.54947281
7 -88.14740753 69.15760803 -34.94779968
7 -89.45671844 65.17724609 -39.01649094
7 -89.24979401 60.33132172 -36.78132629
7 -90.6728363 54.00707626 -36.24671555
7 -85.80886078 50.19264984 -35.34060669
6 98.9364624 -2.409058332 -89.36962128
7 95.7689743 -0.8649965525 -91.12786865
7 94.36754608 1.645897746 -87.79265594
7 91.98306274 5.909136295 -84.73062897
7 90.31240082 10.87607956 -81.44700623
7 94.77626801 10.41520309 -78.43197632
7 97.78958893 9.825540543 -74.37727356
7 97.42706299 12.07417965 -69.46617126
7 96.15158844 14.05405807 -64.41104889
7 94.99851227 10.76094246 -59.22853851
6 43.30418015 -21.79523849 105.5631714
7 40.8419075 -25.0416584 105.0246506
7 37.68166351 -28.93782997 103.3398972
7 38.80967331 -33.67765808 99.98635864
7 36.38790512 -38.27029419 97.24465942
7 38.87500763 -37.94700241 102.990921
7 37.47684097 -40.64208221 98.09484863
7 37.56475067 -43.40169907 93.15847015
7 33.84592438 -43.05995941 89.24688721
7 29.06802177 -47.69120789 89.02818298
