0 -21.83939743 -47.879776 -9.074264526
2 -21.72419548 -47.83441925 -7.684802055
1 -24.02029228 -34.90631104 -5.808808804
3 -23.45659256 -34.60700226 -7.330177307
1 -23.96209335 -21.08924103 -0.07666891068
3 -25.01877594 -21.57550812 1.134540319
1 -21.44735909 -7.518861294 3.491639376
3 -20.18298149 -7.39721632 2.517641068
1 -17.59168434 4.963073254 5.612637043
3 -19.20746994 4.808043957 5.84457922
0 -17.09702873 18.31600952 4.777513981
2 -15.94455814 18.0618515 5.857726574
0 -20.42758179 39.6496048 8.293298721
2 -19.8442688 39.54365921 9.628558159
1 -7.403345108 42.38035202 3.780453682
3 -7.538063049 41.29384995 2.969952822
1 6.297665119 41.58416748 -0.5290287733
3 6.644682884 43.07673645 -0.4052067101
1 18.72267342 38.67778015 -6.452338219
3 19.22269249 37.33694458 -5.805140972
1 32.11806107 34.44101715 -11.66170406
3 31.64705467 34.90433502 -12.82767487
0 42.12116241 30.60566139 -16.19074059
2 43.08655167 31.15281296 -15.29751301
0 30.30673409 -9.06758976 49.13676453
2 31.77138138 -8.675932884 48.64551163
1 22.43705177 1.046746492 44.55622101
3 21.88267899 -0.1763327867 43.75640869
1 12.38101006 9.736887932 38.91207886
3 12.49048996 10.9302845 40.10404968
1 -0.007961825468 16.72702026 34.04428864
3 0.4266719222 16.31615639 32.82818222
1 -9.926093102 24.73007393 26.47714424
3 -10.81750584 24.31336021 27.2835331
0 -18.94303131 31.77421379 19.43962669
2 -17.97900009 33.39086533 19.23421097
0 50.72968292 -2.402247429 -24.79428864
2 51.46857834 -3.257327318 -23.72398186
1 43.18729782 -12.3274231 -26.65150452
3 41.98823929 -11.40798855 -26.78103065
1 32.98643112 -22.5083847 -27.94215965
3 34.38292694 -23.28589058 -28.59366417
1 23.21022987 -33.53752518 -31.04426575
3 22.15073967 -33.21029663 -29.9840126
1 10.44215298 -41.46879578 -31.20226479
3 9.985684395 -41.88599777 -32.76580048
0 -1.916522861 -46.03626633 -28.81333733
2 -1.242034316 -46.6291275 -28.02575874
0 58.14368439 18.13577461 -19.38275719
2 56.66625977 18.8740139 -19.03669167
1 58.18920898 10.88705158 -7.877615929
3 58.56668854 9.138683319 -8.209430695
1 56.07377625 3.421524763 4.265861034
3 56.64115524 4.295819759 5.034341335
1 51.68189621 -1.760829449 17.5518055
3 50.60579681 -2.560906649 16.76905441
1 44.27484512 -7.306074142 29.35749817
3 45.91395569 -7.383430004 29.8193531
0 37.00004959 -15.15745258 38.14337921
2 36.48353195 -13.59212017 37.90198135
0 -10.2558279 -56.10715866 -17.88730621
2 -10.56910992 -54.57756042 -17.93353844
1 -3.677892447 -52.03815842 -7.370776176
3 -4.664195061 -52.42852783 -6.508760452
1 3.262996197 -43.5911293 2.039880037
3 4.776198864 -44.14956665 1.48269999
1 12.18778419 -36.1220665 11.0306015
3 11.32054996 -34.85030746 10.63856411
1 18.37880135 -28.31616592 20.9458065
3 18.81768036 -29.53123093 21.54307175
0 22.35034752 -20.13743401 30.75943756
2 23.39000702 -19.2073555 29.86631775
4 -15.11544418 28.8233757 -4.017721653
4 43.95848083 12.94774246 -18.37009239
4 -14.8397007 -37.99779129 -19.41404343
4 -12.39385319 -60.17153549 -12.1115818
4 21.5304985 -14.23197079 36.22657776
4 -27.91564369 28.65138626 6.401908875
4 29.6791935 -29.75532341 41.87841034
4 -13.36693478 -54.24996185 -33.74971771
4 54.54938126 3.091292381 -18.51735878
4 51.34984589 30.46402931 -28.62415123
4 -33.1882515 40.34751129 19.90373611
4 40.90850067 -20.90207863 51.62102127
