0 -30.71949577 -38.55780411 -17.18150902
5 -31.92358971 -38.34741592 -18.38851929
1 -27.68073845 -34.79930878 -18.75871849
6 -28.85583305 -33.71443939 -18.4147892
1 -25.09783936 -32.05396652 -19.6672554
6 -25.89277267 -31.04646111 -18.74934959
1 -22.89829063 -29.35946655 -20.04616356
6 -23.02644539 -28.56493378 -18.63130569
1 -20.6179142 -26.191782 -20.40679741
6 -20.05181503 -26.30191803 -18.91015053
1 -18.63376617 -23.50930405 -20.64785385
6 -17.76041603 -23.96014786 -19.72324753
1 -16.43894958 -20.1962471 -20.78957176
6 -14.94740295 -21.01761436 -20.79481316
1 -14.20116329 -16.64305878 -21.41236687
6 -12.84959888 -17.23134422 -22.37774849
1 -12.49228954 -13.01430225 -21.45902634
6 -11.6345253 -13.45027447 -23.18921852
1 -10.8066349 -9.784831047 -21.94190598
6 -11.08948231 -9.641303062 -23.53661919
1 -9.905323029 -6.429097176 -22.2167778
6 -10.9458065 -6.188242435 -23.27626419
1 -9.775691032 -3.516304731 -22.95616913
6 -11.01032257 -3.54710865 -22.95183754
1 -9.630901337 -0.4092208743 -23.38933754
6 -11.24482346 -0.219201088 -22.62504196
1 -9.334096909 3.283369303 -24.1295681
6 -10.08521366 3.504743338 -22.85203743
1 -9.180173874 6.78947401 -24.56545258
6 -9.111503601 6.98044014 -22.88584328
1 -9.383562088 10.21727467 -24.78258133
6 -8.171898842 10.5510664 -23.66114807
1 -9.744168282 13.73419094 -25.67459679
6 -8.358606339 14.04377365 -24.90402412
1 -10.24561596 17.35958099 -26.09713936
6 -8.656651497 17.583498 -26.30583382
1 -11.23214626 20.63603783 -27.04394913
6 -9.746829033 20.73894691 -27.89969444
1 -11.77843666 24.10906982 -27.90010452
6 -11.3122282 23.99657822 -29.30311584
1 -12.97018528 27.90061569 -28.76977348
6 -13.14514923 27.3531971 -30.18370438
0 -13.97550583 32.00196075 -29.74616623
5 -15.11256313 31.41955948 -30.50537872
0 -36.69715881 -14.13453007 49.44523239
5 -37.09361267 -13.16849995 50.17951584
1 -36.4496727 -11.29499531 45.56720734
6 -35.69883728 -10.09768391 46.6763649
1 -36.17679214 -8.898066521 42.60542679
6 -35.03926849 -8.355400085 43.24713516
1 -35.94635773 -5.957973957 40.06781387
6 -34.23253632 -6.53408432 40.16746902
1 -34.80253983 -2.718954802 38.20068359
6 -33.75000381 -3.526571512 37.62457657
1 -33.73083878 0.5800387859 36.42061234
6 -33.22011566 -0.1731332392 35.30535889
1 -32.72941589 3.457935333 34.45779037
6 -32.96271515 2.546332836 33.1708107
1 -31.97519684 6.293078423 32.36005783
6 -32.79026413 5.758743286 31.32791328
1 -31.47920418 9.026060104 30.73516083
6 -32.6553154 8.96198082 30.16413498
1 -30.68894958 11.74947739 28.7733078
6 -32.14361954 11.97043896 28.9483223
1 -30.35744286 14.6024971 27.01354408
6 -31.54869843 15.38066864 27.54016113
1 -29.34876633 17.76172256 24.64284515
6 -29.5713501 18.69481659 25.68204689
1 -28.52686882 20.19377899 22.51306152
6 -27.86616135 20.88593864 23.49059105
1 -27.25051117 22.73259163 19.97474289
6 -25.97990417 23.09405518 20.80934525
1 -25.97185135 25.45835114 17.24918938
6 -24.4045639 24.94276237 17.70344353
1 -24.43455887 28.28339958 14.76072121
6 -23.28195381 27.29129982 14.59636021
1 -22.96925735 30.66306496 12.18571568
6 -22.54062653 29.79912376 11.70599747
1 -20.57341003 32.94584274 9.607150078
6 -20.95853233 32.10017014 8.532934189
1 -18.34499359 34.61151123 7.794481277
6 -19.06373787 34.24004364 6.456734657
1 -15.78767204 36.83148956 5.643064976
6 -16.92324448 37.01461792 4.842844963
1 -13.72777271 39.1536026 3.357394218
6 -14.84374714 40.0475235 2.874813557
0 -11.10082054 41.64934158 1.383198142
5 -11.9146204 42.79952621 1.916186571
2 44.30233383 -12.93161201 -20.11937714
5 43.54013824 -14.3782959 -19.90281296
1 41.46805191 -10.38344574 -18.62765884
6 40.89248276 -11.45653343 -17.75683784
1 38.49416351 -8.014602661 -17.8369236
6 38.6766243 -8.747430801 -16.19786263
1 36.1894989 -5.305574417 -17.29132652
6 36.84711838 -5.105683327 -15.75896263
1 33.84372711 -3.601270676 -17.00782776
6 34.54161835 -2.450885773 -16.32621384
1 30.59605408 -1.95197928 -16.89808846
6 31.32099724 -0.6443203688 -16.87701225
1 27.86997032 -0.2454096973 -17.1074295
6 28.65310478 0.8646337986 -17.84038925
1 24.65773582 2.1439569 -16.96119499
6 24.81590843 2.34335351 -18.20955849
1 21.56462288 4.771275997 -16.4669857
6 21.03532791 4.270460129 -17.87229347
1 19.3743 6.6824646 -16.23285675
6 18.47493744 5.65024519 -17.00574875
1 16.6689415 9.05611515 -15.51715851
6 15.71796322 8.055230141 -15.35428333
1 13.81269932 11.27500725 -14.86239815
6 13.09111691 10.34322071 -13.80960751
1 10.86858273 13.6992836 -14.65549183
6 10.89713478 13.29784203 -13.00431347
1 8.755821228 15.59296131 -14.52727127
6 9.232783318 16.10504723 -13.21894169
1 6.371767044 17.13833809 -14.30609703
6 7.390544415 18.04079247 -13.3618927
1 3.204771996 19.92922592 -13.43922901
6 4.19248867 21.08991241 -13.44892883
1 0.9700983763 22.04334641 -13.29438114
6 1.929109216 22.71832466 -13.73924923
1 -1.569063783 24.94114113 -13.03254509
6 -0.9560207725 25.55353165 -14.68537331
1 -3.670685768 27.5526619 -12.87911415
6 -4.155570984 27.60670471 -14.33018303
1 -6.081138134 30.69192314 -12.61675739
6 -6.881869316 29.6966877 -13.58022594
1 -8.338184357 32.91176605 -12.20066547
6 -9.52484417 32.04128647 -12.39170074
2 -10.68834877 35.69684982 -12.1595726
5 -11.75982094 35.07411194 -11.20200062
0 46.1812439 -22.04158401 -2.723511934
5 45.43385315 -23.05421638 -3.660295248
1 42.84597397 -23.31584358 0.880453229
6 42.95601273 -24.79519653 0.3997667134
1 40.71333313 -24.18013954 3.298393488
6 41.35154343 -25.3907814 3.641453028
1 38.68478394 -25.22879028 5.714483738
6 39.78179169 -25.94212532 6.541719437
1 36.25869751 -25.96224594 8.498071671
6 37.28949356 -25.67355728 9.76760006
1 34.17126083 -26.47365761 11.43278599
6 34.90773773 -25.31926918 12.33817482
1 31.72862053 -27.00948334 14.44015503
6 31.80109787 -25.7584343 14.87995625
1 29.40754509 -27.59111595 17.25346565
6 28.95127869 -25.90043831 17.41970062
1 27.29487991 -28.17430878 19.84462166
6 26.58879089 -26.79985619 19.15596771
1 25.48773384 -28.43215179 22.18244171
6 24.47063065 -28.2667141 21.41853714
1 23.06004333 -28.53953362 24.50535202
6 22.08151245 -28.85166359 23.6447506
1 20.54428482 -28.40701866 26.99046135
6 20.05224609 -29.83112526 26.19333267
1 17.89127922 -28.52992249 29.69410896
6 17.77388 -29.81781006 29.57768059
1 15.29187584 -28.59602165 31.92947197
6 15.94389534 -29.90734291 32.69968796
1 12.69116306 -28.65169525 34.19252396
6 13.51164913 -29.36411285 35.06640244
1 9.419598579 -29.22904778 36.86525726
6 10.47899055 -28.80063248 37.9239006
1 6.399535179 -29.39878654 39.52643204
6 7.067090034 -28.26134109 40.61725998
1 3.911706924 -29.52056503 41.38775635
6 4.397852421 -27.76638985 41.47492218
1 0.9636571407 -29.15148735 42.86480713
6 0.6272954345 -27.76201057 42.19930649
1 -2.273191929 -28.63037872 44.22382736
6 -2.814868927 -27.72285271 42.94821167
1 -5.361623764 -28.55012703 45.33662415
6 -6.172800064 -28.52147675 44.06130219
0 -9.143159866 -28.21974945 46.97817993
5 -9.55243969 -29.21387863 45.8624382
2 -17.89124489 -50.56991577 -21.75070381
5 -16.37280273 -49.63623047 -21.84000206
1 -17.81611633 -50.06518555 -17.63787842
6 -17.21430588 -48.50338364 -17.42691422
1 -18.24985886 -50.19776917 -14.38748264
6 -18.60466766 -48.73463821 -14.4744482
1 -18.45129395 -49.80189896 -10.85022545
6 -19.57194901 -48.77373886 -10.74008369
1 -18.74219131 -49.45067978 -7.37022543
6 -20.26584816 -49.36044312 -7.365526676
1 -19.14467621 -48.63220596 -4.009572029
6 -20.65093422 -49.51289749 -4.018565178
1 -19.5457058 -48.15203476 -0.756077528
6 -20.16033363 -49.59241867 -0.589312613
1 -19.92479706 -47.78050613 3.015794039
6 -19.83259583 -49.19714355 3.088936806
1 -20.68427658 -47.61202621 6.756027699
6 -19.77383423 -48.62656784 7.03128624
1 -21.29042053 -47.05348969 10.83790588
6 -19.61387634 -47.71720123 11.17867088
1 -21.8700943 -46.83018494 14.44032478
6 -20.44810867 -46.43027878 14.50460148
1 -22.81058693 -45.83324432 18.20471001
6 -21.76057434 -44.81669998 17.84069443
1 -23.23546982 -44.6888237 21.55907822
6 -23.48272705 -43.48643494 20.95515823
1 -23.86161804 -43.85416794 23.9357338
6 -24.58505821 -42.48276138 22.95656967
1 -24.07825851 -41.93401718 26.9274826
6 -25.53800392 -41.36175537 26.59109306
1 -24.35856438 -40.54764938 29.61514664
6 -25.85714722 -40.9336853 29.69951057
1 -24.29260254 -38.60982132 32.48275375
6 -25.16191292 -39.46590042 33.00843811
1 -23.89300919 -36.24232101 35.81101227
6 -24.13849831 -37.70082474 36.56445312
1 -23.60346794 -34.00074768 39.17984009
6 -22.6311779 -35.05243301 40.23246765
1 -23.36025047 -31.85481644 41.54875565
6 -21.68883896 -32.17150497 41.83953857
1 -22.84557724 -28.84494972 44.25771713
6 -21.46517944 -28.79438591 43.66118622
2 -22.52522087 -24.98780632 47.55377579
5 -21.94134331 -24.21575546 46.43733978
0 -12.10584831 -55.32509232 -35.01460266
5 -12.22782612 -56.09285355 -36.14024734
1 -8.909808159 -53.70550156 -36.60518646
6 -9.70861721 -53.51142883 -38.03415298
1 -5.771077633 -51.79712296 -38.11715698
6 -6.577991962 -51.03733063 -38.73931122
1 -3.131136656 -50.09065628 -39.08779526
6 -4.032714844 -48.86357117 -38.86593628
1 0.09414214641 -47.96621704 -39.8290329
6 -0.1633135974 -47.01840973 -38.99949646
1 2.722655773 -46.08853531 -40.13277435
6 2.694130659 -45.82752991 -38.90248489
1 5.314068794 -43.81777573 -40.99410248
6 5.903131962 -44.13756943 -39.66630936
1 7.814259052 -41.2562561 -41.52426147
6 8.775173187 -41.8183403 -40.77052689
1 9.659060478 -38.32421494 -42.02561569
6 11.0056057 -39.31269836 -41.95982742
1 11.77678585 -34.70328522 -41.75760269
6 12.75306129 -35.29040146 -42.57012177
1 13.96379375 -31.94652557 -41.62014389
6 14.71895123 -32.15316772 -43.26744843
1 16.39354897 -29.3047924 -41.11658478
6 16.23030472 -28.99311638 -42.92030716
1 18.84874535 -26.80239487 -40.86717224
6 18.1721859 -25.93463516 -41.77809906
1 21.20676422 -24.28971291 -40.57978439
6 20.19841194 -23.25665283 -40.82385254
1 23.75132942 -22.32334137 -40.56942749
6 22.86800957 -21.22745323 -39.95257568
1 26.34929276 -19.66459656 -40.39775467
6 25.90696716 -19.1966629 -39.14063644
1 29.17271042 -17.50646782 -40.16263962
6 28.98601532 -17.58369827 -38.65583801
1 32.06707001 -15.53363609 -39.8120842
6 32.40872955 -16.07999611 -38.49165726
1 35.28233337 -12.90480995 -39.22701645
6 36.40547562 -13.99026871 -38.14681244
1 38.57883072 -10.40796566 -39.06602097
6 39.68127441 -11.56874371 -38.77006149
1 41.0286293 -8.136834145 -37.97728729
6 41.99224091 -8.937204361 -38.64506912
0 43.98029327 -5.016924858 -36.75987625
5 44.35784912 -5.403247356 -38.11965942
7 -15.17105675 38.29309845 -21.20142746
7 47.68279266 -9.569875717 -28.79151154
8 -5.969180584 -57.92800522 -26.75500107
8 -1.262193799 -54.43680954 -25.19443703
8 -1.28999269 -52.72523499 -19.0214119
8 4.585711956 -51.88286972 -17.11626434
8 9.165441513 -49.56420898 -16.96127892
8 10.13567638 -44.3567276 -17.63225555
8 7.260849953 -40.03103256 -19.38100243
8 6.028736115 -35.45709229 -21.84179497
8 5.464835644 -31.14094353 -24.27652168
8 4.76824379 -25.07204628 -26.67672157
8 -0.9372746348 -22.67403984 -27.94391632
8 -2.219511509 -24.25323677 -31.92844582
8 -4.607439041 -23.16568947 -37.17986298
8 -8.65883255 -20.49043274 -40.58745193
8 -11.1889677 -16.56887817 -42.22790909
8 -14.95245266 -13.08158398 -43.46052933
8 -19.53070259 -12.43625641 -46.39910126
8 -23.47340393 -13.19318867 -50.17697144
8 -28.28367805 -17.53054428 -50.6605835
8 -30.31899643 -18.41778564 -56.52980423
8 -34.18919754 -21.96381187 -58.93311691
8 -36.98172379 -19.83600426 -63.53601837
8 -42.0621109 -23.4089489 -64.07942963
8 -43.48336029 -27.27423859 -60.25671768
8 -42.91888046 -31.77052498 -56.71285248
8 -44.40895462 -35.9690094 -53.1526947
8 -43.69470215 -41.55994415 -51.19729614
8 -42.17181778 -45.11168671 -46.62526321
8 -40.76631546 -48.43754959 -43.22105408
8 -34.83859634 -56.75837708 -46.22787094
8 -31.18910027 -56.68685913 -50.67295456
8 -28.63425255 -60.40958023 -53.81389618
8 -23.36076546 -61.82374954 -54.22573853
8 -17.76269531 -59.8765831 -52.77690125
8 -13.52336979 -59.5723381 -54.0291748
8 -13.16057968 -54.81679916 -50.76935959
8 -15.96375179 -50.6402626 -50.72972107
8 -19.1456089 -46.00597763 -47.94457245
8 -19.56386375 -42.32229614 -43.51550674
8 -22.53355598 -41.70322037 -37.96570969
8 -26.4391861 -39.59058762 -33.71593094
8 -30.50379562 -36.67446136 -36.68583679
8 -32.53350449 -32.88022995 -39.70622635
8 -36.36010742 -30.55422974 -40.37520981
8 -40.53452682 -27.83006287 -43.051548
8 -39.27101898 -23.78445435 -39.01711273
8 -36.72860336 -19.86043549 -37.96878052
8 -36.17318726 -19.58975983 -32.30371475
8 -41.24296951 -21.06277084 -28.99025726
8 -41.80591583 -17.61375809 -32.49067688
8 -45.61039734 -18.18394279 -28.77076912
8 -44.07094955 -17.42252922 -23.11694717
8 -44.62392807 -22.11226654 -19.07736015
8 -46.11095047 -24.60362625 -13.66176987
8 -47.71318054 -28.87626266 -10.40485382
8 -43.39739227 -33.01280975 -8.202964783
8 -38.73400497 -35.45018387 -6.148019314
8 -33.92750549 -34.57265854 -8.30469799
7 -27.30607033 -46.13001633 -23.13787079
7 -27.94463348 -19.63251877 51.43006134
8 -1.815719724 40.32578278 1.292669415
8 0.7654887438 45.49754715 3.756379843
8 -0.3618226051 49.91378403 6.202654362
8 2.855430126 48.7660675 10.31787682
8 1.774929881 51.73755646 13.58763409
8 5.504115582 54.75640106 11.7205162
8 9.751024246 58.63129044 12.98153305
8 15.36299801 56.4782486 14.54586792
8 16.58910751 55.62121201 19.9783287
8 16.45798302 51.11952591 23.70029831
8 14.2406168 50.19085693 29.22745132
8 12.25518513 48.30915833 25.29255867
8 15.40296268 43.74151993 23.56958008
8 18.42966652 39.35903931 24.39587593
8 22.83511925 37.50564575 22.49237442
8 26.71179581 41.04285812 20.62764359
8 30.44070816 42.95195007 18.28723717
8 33.40196228 46.57102585 14.42862988
8 30.39105415 44.37594223 10.32910824
8 26.01294136 46.89337921 9.02365303
8 21.4943676 45.43016052 7.724991798
8 20.47968674 47.0702095 2.555650711
8 20.6816597 46.9230423 -3.160241127
8 22.51350594 46.11572266 -9.000481606
8 17.61797523 46.74180984 -6.294827938
8 16.16633034 50.61096954 -9.814442635
8 11.17914677 53.04631424 -8.88571167
8 8.519734383 52.49219513 -13.9815197
8 6.937083721 53.51834869 -19.7296524
8 -10.27463436 53.39312744 -25.37579155
8 -15.57652569 52.30492401 -23.40152168
8 -20.64928055 54.92424393 -21.38045311
8 -24.51980972 58.19847488 -22.39128304
8 -28.71911049 59.56005096 -21.29681206
8 -31.62609291 62.11354446 -18.75014496
8 -36.18751526 66.22821808 -17.07348633
8 -40.90937042 68.04925537 -17.76902962
8 -46.75662994 70.10798645 -18.70209885
8 -52.12758636 68.80237579 -19.23448563
8 -52.35188675 68.80827332 -24.19632149
8 -54.83285522 66.47286987 -28.44318199
8 -59.07228851 65.43436432 -31.18806458
8 -63.41444778 61.83402252 -30.37008286
8 -59.87373352 60.02303314 -35.03350067
8 -56.57472229 57.86449432 -39.22422028
8 -55.09359741 53.48456192 -38.09918976
8 -49.11782455 54.47990799 -36.86245346
8 -46.31267548 51.01010895 -33.61926651
8 -43.54803467 45.53605652 -34.81648254
8 -48.11743927 46.28087234 -39.57577515
8 -45.62015533 42.15027618 -41.49594498
8 -40.94272232 46.12171936 -40.5751915
8 -35.63012314 44.20187378 -40.67092514
8 -30.70617676 46.88171005 -43.77865219
8 -25.84733009 45.71112061 -43.50667953
8 -23.2623291 43.96596146 -38.5629158
8 -18.23431206 43.13228989 -37.35619736
8 -12.60731888 40.96837234 -35.14528656
7 -16.24090958 -29.42694092 54.61884689
7 -21.12676811 -53.29268646 -30.30212975
8 39.20921707 2.803921461 -33.92279434
8 36.64317703 7.439743042 -30.72359276
8 36.30718994 12.74503994 -33.88404083
8 40.18428421 14.36312199 -32.72177124
8 42.88594818 19.63464928 -34.75664902
8 45.47351456 24.27650642 -37.73672867
8 42.18095779 27.43388367 -40.35210419
8 44.03181458 22.80490303 -43.12943268
8 45.56002808 25.38540268 -47.80150223
8 46.3015213 22.40949631 -52.70383072
8 50.62031174 19.60038757 -51.45457458
8 56.33987045 21.92641449 -52.19372559
8 56.23934174 27.88531303 -53.58976746
8 57.86012268 33.72192764 -55.20676041
8 60.65140152 36.43591309 -50.09726334
8 59.4186821 32.57584763 -45.47824478
8 63.64253235 29.95682907 -48.05241394
8 68.29245758 29.64847565 -51.84439468
8 72.63339233 25.84153557 -52.81024933
8 72.85926819 23.07345009 -49.19034195
8 76.65795898 19.52446175 -46.57617188
8 78.92935181 19.11256027 -41.6603775
8 80.10945129 19.82758904 -36.79005051
8 75.2747879 21.45088005 -35.16136932
8 74.50437927 26.24804497 -32.87994003
8 77.37653351 24.32735825 -29.45924759
8 73.3007431 20.71396065 -28.10808754
8 68.9420166 20.48195076 -25.87203789
8 69.91760254 15.55450439 -22.29454041
8 79.89186096 5.9124403 -16.85414124
8 84.00712585 8.613140106 -19.59465027
8 87.77500153 13.52635574 -18.67963982
8 92.15447998 10.766819 -19.19511986
8 89.91078949 15.36484432 -16.48776054
8 90.90655518 18.07256126 -12.94519711
8 91.9150238 16.25718498 -7.059101105
8 91.95645905 15.39347649 -4.0206604
8 95.89642334 19.67132568 -4.486468792
8 95.62287903 21.38060379 0.9492781758
8 92.57341003 18.93226051 5.437147617
8 91.31954193 24.30955887 7.767389774
8 88.33190155 26.18628883 12.89836597
8 88.05649567 23.7881279 16.82996941
8 84.46954346 22.79802895 20.86671829
8 78.99732971 19.42406464 21.22657585
8 74.92819977 17.4255352 22.84869003
8 72.17429352 12.95053768 21.10964775
8 72.62706757 6.847539902 20.86726379
8 70.10133362 1.065933466 20.69534683
8 64.87046051 -1.016089439 17.49395752
8 61.88126373 -4.628168583 20.06207466
8 63.09257507 -6.709527493 18.51805305
8 64.14971161 -7.065151215 12.59948444
8 63.92855453 -11.68258762 8.471705437
8 61.30558395 -15.94826412 5.922071934
8 61.0607872 -21.36243057 4.684565067
8 60.35318756 -25.99341011 2.199064493
8 54.38079071 -25.78202629 2.437041759
7 46.93191528 -15.66720104 -10.66492271
7 -11.65591335 44.41578293 -8.89234066
8 -43.08418655 -20.45684814 55.03471756
8 -48.63939285 -19.07566643 52.86911011
8 -50.99003601 -16.11826134 55.68161392
8 -53.91803741 -10.97305775 58.52426529
8 -51.36906052 -6.054889679 59.82775497
8 -52.01111221 -1.817248464 63.10263824
8 -51.82426453 4.419291973 63.11869431
8 -51.50783157 9.558940887 60.72768021
8 -48.14691925 12.31786251 59.20763016
8 -44.81072617 16.74455452 59.3828392
8 -40.3587265 17.71662521 63.24807739
8 -36.41318893 20.5451088 65.69712067
8 -35.38009644 18.21468353 70.00075531
8 -34.56668472 14.06801987 73.79528046
8 -29.65807533 13.26758766 76.55409241
8 -26.9966011 12.02379417 81.73138428
8 -23.68167114 15.0034008 84.97162628
8 -17.80150986 16.22047424 84.87232971
8 -14.39616776 20.81261253 84.20491791
8 -11.37028122 17.76859474 88.69293976
8 -8.500867844 18.24929047 92.46614075
8 -2.840103626 17.5142231 89.66300201
8 -3.338095665 15.30620956 83.90917206
8 1.388420701 13.31097412 84.05684662
8 4.076618195 9.904162407 87.77320862
8 6.073519707 4.531804085 86.7855835
8 3.586360693 -1.149495244 88.1530838
8 5.051056862 -7.420650482 89.17848969
8 0.9311011434 -10.0610342 90.09628296
8 -1.48444593 -22.91868782 102.9415054
8 1.714057684 -26.48192787 102.1169662
8 3.320324421 -30.55047417 97.6037674
8 0.5215542316 -35.88985443 98.90773773
8 4.35703373 -31.04310226 99.67058563
8 8.471756935 -29.19081116 97.1704483
8 13.90977955 -26.81905937 96.00175476
8 17.4235096 -26.9260807 91.0134201
8 18.94778061 -31.81915855 90.48949432
8 22.65026665 -35.14242935 90.94958496
8 22.34095383 -38.37223053 85.51889038
8 26.39608955 -35.70718002 82.0572052
8 30.13896751 -32.72628021 79.3724823
8 33.19539261 -27.17869186 81.46320343
8 34.45793152 -23.72898483 80.09397888
8 32.63343048 -19.979496 76.94148254
8 28.24365044 -17.73866653 72.26081848
8 26.29526901 -14.45334816 69.18302155
8 22.76602745 -10.0959301 65.76470947
8 22.5379734 -5.581454754 61.3562355
8 17.35937881 -4.333386898 58.61893082
8 12.96250439 -8.342235565 58.30654907
8 10.04783916 -11.59198952 54.06116486
8 5.852561951 -10.56233406 52.38573837
8 0.7783891559 -10.2619772 54.79424286
8 -1.306723237 -14.31222343 50.5576973
8 -5.783461571 -12.24203873 48.50019836
8 -9.848812103 -12.7333498 49.47188568
8 -11.78122997 -18.95831871 48.61484909
3 -35.02448654 -53.28097153 -36.52407074
5 -34.10972977 -52.73256302 -35.91391754
1 -38.00677109 -52.97431946 -33.0979538
6 -37.82535553 -51.51905441 -32.91411591
1 -41.01018524 -52.96774673 -31.09649849
6 -41.29514694 -51.41901779 -31.2771759
1 -43.87910461 -52.95929337 -29.04926682
6 -44.46977615 -51.67303467 -30.04509544
1 -46.85517502 -52.7314682 -26.93066216
6 -47.53683853 -52.15138245 -27.97447205
1 -48.99511337 -52.59501648 -25.19878387
6 -49.87618256 -53.1080513 -26.46505356
1 -51.96133804 -52.31540298 -22.70265579
6 -52.95101547 -53.42137527 -23.39879608
1 -54.50983429 -52.08031845 -20.49833298
6 -54.37579727 -53.4924202 -20.29145622
1 -57.4300766 -51.88250732 -18.35785484
6 -56.69510651 -53.26873016 -17.79486084
1 -60.2181015 -52.12936401 -16.15213776
6 -59.46386719 -52.71912384 -15.01377201
4 -62.94569778 -51.82341385 -13.85117531
5 -62.05993271 -51.67612457 -12.54949474
3 -3.013047457 56.47340393 -18.97236633
5 -3.512985945 56.34516144 -17.45522499
1 -3.576081991 60.82743454 -18.89840126
6 -2.983865023 60.69172668 -17.48117638
1 -3.844364405 64.26340485 -18.4828186
6 -2.228047848 64.484375 -17.56026649
1 -4.250038147 67.78307343 -18.02454758
6 -2.715509176 68.02334595 -18.14189339
1 -4.654360294 71.735466 -17.60482025
6 -3.377864599 71.94126129 -18.51652908
1 -5.136202335 74.89134216 -17.25564003
6 -4.573442459 75.29225159 -18.78548241
1 -5.28397131 78.39321136 -15.97659016
6 -5.708415985 78.84825134 -17.52265739
1 -5.305733681 80.85423279 -15.34386253
6 -6.526079655 81.27998352 -16.19397736
1 -6.057907104 84.53504181 -13.76720428
6 -7.624141693 84.50901031 -13.92669106
1 -6.296825886 88.11405182 -12.48155212
6 -7.784702301 87.55796814 -11.90061188
4 -6.495249748 91.65391541 -11.61069107
5 -7.268271923 91.31174469 -10.49003029
3 72.55471039 6.673904896 -22.86558533
5 71.77497864 5.561805725 -22.09842682
1 70.63785553 4.323060513 -26.32094574
6 69.3068161 3.986924887 -25.8679142
1 69.52175903 2.853512287 -29.65848541
6 68.14032745 3.460110188 -29.53131294
1 69.03462982 1.348129749 -32.19416046
6 67.95070648 2.581953049 -32.58970261
1 68.59042358 -0.4040668607 -35.52238464
6 68.62076569 1.031664729 -36.29450607
1 67.89797211 -1.962928653 -38.63674545
6 68.96585846 -0.9902142286 -39.10079193
1 67.10406494 -3.616560936 -41.8254509
6 68.85597229 -3.545025826 -42.28170013
1 66.64459229 -4.591593742 -44.6349678
6 68.16519928 -5.393081188 -44.35840607
1 66.21759796 -6.154510498 -46.96873474
6 67.09396362 -7.093865395 -46.38457108
1 65.82002258 -8.180990219 -50.25272369
6 65.85998535 -9.727752686 -49.64629745
4 65.21988678 -10.17598724 -53.59620667
5 64.22112274 -11.37774181 -53.09202957
3 0.3457574248 -13.08220673 100.5563812
5 1.617302656 -12.54015732 101.3102188
1 -1.542956471 -9.626543045 102.1949539
6 -0.1711662859 -8.886546135 102.0300064
1 -2.940814972 -7.370837212 103.9347992
6 -2.147198439 -6.3947649 103.1622925
1 -4.525908947 -4.957549572 105.3301163
6 -4.346569061 -4.137943745 103.983551
1 -6.152581215 -1.885830045 106.8799286
6 -6.966049671 -1.431135774 105.3610153
1 -8.094322205 0.7455605268 108.7887192
6 -9.205779076 0.5816842914 107.8370514
1 -10.30540276 2.795799255 111.1921463
6 -11.60207653 1.765918493 110.6483536
1 -12.77044964 4.729151726 113.5418015
6 -13.64879799 3.533195257 113.7984085
1 -15.2956543 6.64380312 115.5856628
6 -15.25570297 5.498331547 116.3718338
1 -17.6204319 8.448670387 117.6003723
6 -17.17741203 7.407407761 118.6108475
4 -19.99065971 9.780286789 119.6996536
5 -19.00976753 9.791571617 120.7513885
9 -90.27611542 -31.50923538 -27.46510887
10 -88.28619385 -31.56833458 -23.56957817
10 -84.9030304 -36.36480713 -24.99455261
10 -79.87372589 -37.59966278 -28.00047874
10 -81.69638062 -40.71097946 -22.96914101
10 -80.81522369 -46.04977417 -20.74143219
10 -82.73767853 -47.95746231 -15.81946468
10 -79.36417389 -51.96630096 -17.47007561
10 -75.85514069 -55.02088928 -13.56343079
10 -70.41307831 -57.25122452 -13.99752331
9 12.73902988 91.4960022 9.720643044
10 13.03335571 94.14590454 8.450405121
10 13.96914005 96.84542084 3.307968855
10 13.65365887 97.68479156 -2.326874733
10 10.85528183 101.5373611 -5.535651684
10 7.006873608 105.8875122 -8.371413231
10 1.726680994 106.3738708 -10.68769073
10 -2.243196726 106.2615204 -11.57332897
10 -4.20793581 103.0215302 -16.29988289
10 -8.830079079 99.17646027 -14.16570568
9 97.94308472 -27.27194977 -71.39936829
10 93.4081955 -26.81030273 -69.94628143
10 88.6958313 -28.19058418 -73.73770905
10 89.52379608 -24.64860535 -78.74803925
10 88.08637238 -22.57922935 -74.00146484
10 88.75064087 -19.49445534 -68.37701416
10 83.35617828 -16.60953331 -67.89336395
10 78.82418823 -14.02334976 -66.78479767
10 73.16146851 -13.58449268 -64.41558838
10 69.33416748 -14.72511387 -60.61371994
9 -20.61771774 18.41308784 111.7139435
10 -23.86598206 19.45607376 111.3477859
10 -22.49309921 20.60749435 116.3777237
10 -24.62909698 21.92088318 120.3423538
10 -29.05286407 18.55480385 118.5515976
10 -34.99202728 16.03933907 119.9124451
10 -36.83695221 11.65638351 118.1945724
10 -34.04675674 6.538871765 120.6585007
10 -32.34627533 4.102571964 124.6261292
10 -27.52074432 6.20801115 123.3984604
