0 -17.30313683 -39.56798172 -11.48737049
1 -13.99253082 -24.54864883 -18.06922722
1 -13.49668026 -11.68838882 -22.7989769
1 -12.16640759 2.821559906 -26.27830505
1 -8.128834724 16.86376572 -27.76438522
0 0.02310620807 29.67160225 -27.51353264
0 -42.95298004 -11.8825388 61.51627731
1 -38.94940186 -0.7782014608 51.56921768
1 -36.20104218 9.373723984 39.82982254
1 -29.80288315 19.13016129 30.33131981
1 -23.89242935 29.05040359 22.40706635
0 -13.02649879 38.47504425 14.63873577
2 47.93170166 8.045817375 -19.6406498
1 36.91896439 10.12733173 -15.3985672
1 23.80646324 11.45114517 -12.29863548
1 11.8748045 18.16217422 -8.890151978
1 0.902535677 26.33977509 -6.55743742
2 -10.96335793 31.98304176 -3.635708094
0 48.00351334 -19.66085243 -11.35810471
1 37.92737579 -25.57307625 0.2944557071
1 26.46629715 -26.58467674 9.497835159
1 18.32189751 -26.11634254 20.18404198
1 8.688479424 -29.50967216 31.3282299
0 -1.161674142 -34.9855957 41.6593399
2 -8.169216156 -65.46897125 -7.958416939
1 -12.62448978 -59.05357361 2.20405817
1 -19.07741928 -51.54115295 12.84684181
1 -25.72984695 -45.29165649 23.56011391
1 -29.81431198 -35.06071854 34.51996231
2 -30.76202583 -24.690485 42.96627808
0 -2.802731514 -63.51628113 -35.78102493
1 1.928865194 -52.61808395 -42.83390808
1 8.649217606 -40.39205551 -44.38277817
1 15.90746403 -28.04355621 -44.30037308
1 22.8047657 -15.24240303 -44.11832428
0 28.18875694 0.3667954803 -43.80111694
6 -11.07529926 23.01707649 -13.83246231
6 41.98422241 3.07825613 -32.80919647
7 -19.15603447 -50.41110992 -34.8788147
7 -10.07602215 -32.87314606 -52.2089386
7 -20.52776146 -28.22756958 -49.59319687
7 -48.8204689 -30.44122505 -40.56509018
7 -43.77212143 -53.4681015 -44.4517746
7 -28.17221642 -75.35586548 -44.94164276
7 -32.21504593 -68.44726562 -46.20663834
7 -36.66314697 -42.32209396 -40.66299438
7 -34.80079651 -42.00891876 -23.57499504
7 -38.50728989 -32.92389297 6.12292099
6 -2.356963873 -51.91030121 -4.14119339
6 -38.99155426 -12.75165176 43.30719376
7 -15.83235073 58.13092804 19.93486214
7 -0.844242692 42.37003326 30.6354599
7 1.222218633 37.52542114 33.04890823
7 7.068450928 37.62268066 7.325437546
7 11.17546844 47.02993774 4.420508862
7 -24.00576401 60.3041153 -27.89710426
7 -39.39651871 77.25705719 -16.45595741
7 -48.57511139 60.93351746 -40.67674255
7 -22.0334549 49.90363312 -45.17987061
7 -16.89721107 32.33070755 -48.71500015
6 -19.68222618 -31.71710587 43.02508545
6 -8.948058128 -60.95468521 -21.69791794
7 34.28818512 5.244057178 -63.04644775
7 18.26405716 19.92318153 -46.0601387
7 44.24256516 26.52710152 -42.17237473
7 55.87434006 21.23508644 -54.51400757
7 63.13367462 36.46083069 -30.32208252
7 55.36183167 14.97707272 -1.046822667
7 74.01828003 27.50024033 -2.424510241
7 80.33589935 18.58046341 18.65670395
7 67.87852478 4.131960869 16.60795784
7 57.94041443 -18.32805634 4.286005497
6 44.52190781 1.275665283 -9.455000877
6 -8.282943726 23.00301361 6.578713417
7 -42.81436157 6.205298424 77.5785675
7 -26.70463562 8.705553055 65.18497467
7 -22.40235138 17.90015602 61.48521042
7 -4.036449432 14.56140423 82.52980042
7 1.775289416 -0.5294097662 82.80387878
7 -1.123604655 -32.51550674 100.9500275
7 21.38736534 -37.59872818 82.68880463
7 21.1229763 -19.83842087 76.42688751
7 25.96378136 -13.08864307 68.91385651
7 5.172548294 -9.799912453 52.76625824
3 -32.65201187 -60.71235275 -18.61220741
4 -49.96793365 -56.63853073 -25.65787315
5 -64.39598083 -47.99889374 -30.50882721
3 -12.4932003 62.79119873 -7.231589794
4 -4.735173702 81.80344391 -13.52441788
5 -2.159130573 99.8110199 -14.2895422
3 71.63246918 16.56367302 -21.28262138
4 75.32996368 2.538015366 -36.08027267
5 77.42683411 -2.008359194 -52.11501694
3 -0.1979598552 -25.04101181 105.3914337
4 -14.19111347 -9.497016907 113.0175171
5 -22.72951317 2.660964727 121.3147278
8 -75.66564941 -47.66429901 -41.36553574
9 -82.90315247 -61.53113556 -28.66282272
8 -23.05333519 86.81168365 9.058029175
9 -3.342090607 92.78767395 4.551246166
8 104.3388062 21.41739464 -49.74369431
9 102.7426834 2.504245758 -60.53375626
8 -14.00818539 41.09900665 98.18583679
9 -11.81327438 26.82683945 107.2139053
