0 -24.26978874 -44.53256989 -13.98829269
5 -25.35022926 -44.34121704 -14.75379753
1 -22.55441666 -39.67757034 -14.3079586
6 -23.93960953 -38.90817261 -13.81099129
1 -20.75787163 -36.20662308 -14.86480236
6 -21.42106056 -35.71403885 -13.72000027
1 -19.51469421 -32.68165588 -14.78063297
6 -19.79782295 -32.63357544 -13.21350288
1 -18.22537804 -29.72626877 -14.87854862
6 -17.79902649 -29.58427048 -13.58115578
1 -16.6650238 -26.11540413 -15.11906815
6 -15.12616348 -26.43977928 -14.39520359
1 -15.7433548 -22.64677048 -15.53269386
6 -14.38358784 -23.04096985 -15.56210041
1 -14.7485466 -19.06789017 -15.98805046
6 -13.60369873 -19.63824081 -17.20996475
1 -13.9499321 -15.11877441 -16.5050106
6 -13.40624142 -15.48776722 -18.11162949
1 -13.6203413 -11.40132523 -17.88164902
6 -13.8556385 -11.67207813 -19.43832397
1 -13.46866703 -7.923822403 -18.56098366
6 -14.37660313 -8.051089287 -19.62806511
1 -13.10741329 -4.911653042 -19.22594261
6 -14.46547794 -4.682220459 -19.96834755
1 -12.95163536 -1.423267961 -20.04017258
6 -14.66210365 -1.356478691 -19.88200951
1 -13.29812145 1.664562821 -21.00748444
6 -14.55723572 1.925093174 -19.99456406
1 -13.83916378 4.902168751 -22.60022354
6 -14.21074104 5.658554077 -21.30098343
1 -14.06846523 7.964467525 -24.30153465
6 -13.66390896 8.636333466 -23.12195015
1 -13.88576698 11.05541229 -25.84203529
6 -12.76552773 11.23503113 -24.96586037
1 -13.85665035 14.64908218 -27.19369507
6 -12.13322735 14.78985786 -27.07949638
1 -14.13589096 17.91058922 -28.01021957
6 -12.70997047 18.03173637 -28.99742699
1 -14.46188259 21.24208832 -28.8860569
6 -13.92093754 20.83099365 -30.16139412
1 -14.45505142 25.27551651 -29.80819511
6 -14.60148239 24.8290062 -31.62898827
0 -15.16333866 29.40450096 -31.20509148
5 -16.43406677 28.91051483 -32.09471512
0 -31.67108345 -12.49694824 50.04465485
5 -30.71766853 -11.40249443 50.5213623
1 -33.11221695 -8.916588783 47.06253433
6 -31.74285507 -8.502484322 47.01170731
1 -34.62831497 -6.374354839 44.70505905
6 -33.26416397 -6.182836056 43.9116478
1 -35.63381958 -4.00224638 42.87042999
6 -34.73146439 -4.57158041 41.96660233
1 -36.23459244 -1.45783782 40.60667038
6 -36.09450912 -2.610247612 39.24068832
1 -36.34449005 1.798603773 38.11158371
6 -37.09525299 0.8218114376 37.04834366
1 -36.49555206 4.641855717 35.5200882
6 -37.47813034 4.226480484 35.07167816
1 -36.20327377 6.831832409 33.6144104
6 -37.53456116 6.789325237 33.53186798
1 -35.85966873 9.878864288 31.23288345
6 -36.94445038 10.46054173 31.51137924
1 -35.14917755 12.38109207 28.45671463
6 -35.84837723 13.52581501 29.42162704
1 -34.52516174 14.84445858 26.14891434
6 -34.03632355 15.8808403 27.35489464
1 -33.88306046 17.23816872 23.66565132
6 -32.70302582 17.66666603 24.57530975
1 -33.1336174 19.76869774 20.63771439
6 -31.65637398 19.88237762 20.90084648
1 -32.7142334 21.74582481 18.1344986
6 -31.47375107 20.97835159 17.75781059
1 -32.34598923 24.13541031 15.53362751
6 -31.39451218 23.44203568 14.53531837
1 -31.61388779 26.97115326 13.32592869
6 -31.87844849 25.75876427 12.25099754
1 -30.62320709 29.55956078 10.7826376
6 -31.49338913 28.9713974 9.951497078
1 -29.22232246 31.60178566 8.349398613
6 -30.68475342 31.64140511 7.594505787
1 -28.33565331 34.06863022 5.523744583
6 -27.5654068 32.81650925 4.873316765
1 -27.33533478 36.45222473 2.93163228
6 -27.42477226 35.38430786 1.979013443
1 -25.66254044 38.52979279 -0.08379285038
6 -26.44323349 37.74484634 -1.06148839
0 -23.80261612 41.05189514 -3.572290182
5 -24.97911453 41.44475937 -4.1323452
2 42.75980759 -10.17131424 -21.9310379
5 42.08213043 -11.31751919 -21.16902542
1 40.79770279 -6.881298065 -20.80737686
6 40.80477905 -7.481945992 -19.24298859
1 39.36916351 -3.952478647 -19.86376572
6 40.20467377 -3.861950636 -18.4511776
1 37.72207642 -0.7142260075 -18.52326775
6 39.076828 -0.1062048972 -18.06354141
1 35.71971512 2.260033369 -17.66169167
6 36.91871262 2.961491108 -17.86673164
1 33.98300171 5.014821053 -16.54486275
6 34.69321823 6.031734943 -17.38482857
1 32.09885788 7.360571861 -15.51822662
6 32.0618782 7.833323002 -17.06768227
1 30.20234299 10.2853651 -14.31578636
6 29.62669754 10.25643539 -15.65455437
1 28.3218689 12.35597801 -12.90437222
6 27.25351334 12.0976963 -13.7594738
1 26.03408623 15.06451511 -11.94121265
6 25.04868698 14.08570576 -11.98911858
1 23.56591988 17.30127144 -11.13328075
6 22.54823875 16.06834984 -10.85436058
1 21.26093292 19.03538132 -10.94346523
6 20.94654083 18.23160362 -9.630957603
1 18.54923058 20.91274071 -10.63593483
6 18.36754608 20.61616516 -9.196344376
1 16.16761017 22.40533257 -10.81407833
6 16.4511528 23.27200317 -9.361136436
1 13.01789856 24.45355988 -10.81196594
6 13.62187386 25.87268257 -9.966194153
1 10.10065269 26.2557869 -10.88183022
6 10.8903532 27.55535126 -11.26874065
1 7.365998745 26.96240997 -11.15313721
6 7.934830666 28.13425446 -12.05714035
1 4.741820812 28.08332062 -11.59334469
6 5.064190388 28.1716938 -13.06208515
1 0.9159395695 29.29937553 -11.9262867
6 1.005356431 28.68854523 -13.48355675
1 -3.107058287 30.64874077 -12.96263218
6 -3.077630758 29.67887306 -13.60655785
1 -6.982038975 31.60076141 -13.6774416
6 -7.072864532 30.1319828 -13.89402866
2 -11.73623562 33.4065094 -14.27419853
5 -12.3053503 32.4708252 -13.61863804
0 46.23802185 -18.95404816 -10.10782909
5 46.6743927 -20.508564 -10.46921539
1 43.04328918 -19.60229301 -8.049036026
6 43.6558876 -20.74147797 -7.496375084
1 40.67563248 -20.03005981 -6.411240578
6 41.36991119 -21.03681374 -5.429246902
1 37.48628998 -20.34558868 -4.583234787
6 38.32101059 -20.24638939 -3.28243804
1 35.00951767 -20.90641212 -3.223429203
6 35.6194191 -19.91458702 -2.053303003
1 32.35704422 -21.78930855 -0.6707553864
6 32.48983383 -20.31253815 0.006009174976
1 29.15464401 -22.92353439 2.228095055
6 28.48346901 -21.66656685 2.127693176
1 26.97499657 -23.75853539 5.064192295
6 25.91621399 -22.96515083 4.436283588
1 24.24518585 -24.82525253 8.38343811
6 23.27541542 -24.9987812 7.357482433
1 22.16515923 -26.09434319 11.48931217
6 21.50928879 -27.15561867 10.85267258
1 20.02629852 -27.10261536 14.87639046
6 20.16678619 -28.58308983 14.49088955
1 18.17255211 -28.14980888 17.86447906
6 16.88736343 -28.17698669 17.18695831
1 15.98821354 -29.39288521 20.6333313
6 15.03526306 -30.05246353 19.79316521
1 13.64616489 -30.73772621 23.78260803
6 13.16246223 -32.0268364 22.91578293
1 11.62561512 -31.39105415 26.88866997
6 12.08269405 -32.73089218 26.99437714
1 9.297078133 -31.25629234 29.96145821
6 10.16273975 -32.37316132 30.6550808
1 6.792575836 -31.34701347 32.91378784
6 7.933601856 -31.49594688 34.10667038
1 3.983169794 -31.15220642 35.6583252
6 5.089279175 -30.46226692 36.4591713
1 1.208561897 -30.41146851 37.99539566
6 2.011318684 -28.94665146 38.45536804
1 -1.183526397 -29.65112305 40.42619705
6 -1.074726582 -28.20774651 39.99958038
1 -4.282270432 -28.67813301 42.81103516
6 -4.651940346 -27.49884415 41.82237625
0 -8.041998863 -27.31067467 45.24986267
5 -8.784608841 -27.16034889 44.19566727
2 -17.58714485 -62.35957718 -18.29740143
5 -16.02412987 -62.6984024 -17.90921211
1 -17.53933716 -61.39899445 -14.30651951
6 -16.26555061 -60.6797905 -14.54763412
1 -17.48522186 -60.52910233 -10.51459599
6 -16.64205933 -59.32165527 -10.68784714
1 -17.11087227 -59.49207687 -6.795859337
6 -17.19205093 -57.9371109 -7.383308887
1 -16.9782486 -58.60799408 -3.685875177
6 -17.79307175 -57.51600647 -3.927100658
1 -17.30161095 -57.4630127 -0.03881007805
6 -18.80207825 -57.01968765 -0.2580698431
1 -17.79072189 -56.02314758 3.551343679
6 -19.08014679 -56.40722275 3.448374748
1 -18.35456276 -54.60967636 6.362540722
6 -19.31856728 -55.75968933 6.763813019
1 -18.99453354 -52.31428909 9.72995472
6 -19.10067558 -53.45856094 10.64674759
1 -19.49972343 -50.36878967 12.33243942
6 -18.25225258 -51.19445419 13.06678295
1 -20.05728912 -48.36595154 15.02331352
6 -18.6060276 -48.25290298 15.16310596
1 -20.28812408 -46.65403366 17.84321976
6 -19.18941307 -45.73920441 17.29585075
1 -20.0878849 -44.4111557 20.50986481
6 -19.97722435 -43.30233765 19.92317009
1 -19.92884445 -42.28953934 23.53578568
6 -20.78724289 -41.3645668 22.88786697
1 -19.45410347 -39.64022446 26.62519073
6 -20.70561981 -39.14528275 26.21131134
1 -18.90789223 -36.96050262 28.649786
6 -20.49719429 -36.72423935 28.93183708
1 -18.61553764 -34.46048737 30.51572609
6 -19.44390869 -35.12189865 31.68375969
1 -18.30026245 -31.75362587 32.31316376
6 -18.32354927 -32.55429459 33.4239006
1 -18.14175797 -28.82325745 34.69884491
6 -17.41422653 -29.37937927 35.44379425
1 -18.35297775 -26.57274055 36.86522675
6 -16.96503448 -26.86723137 37.22570801
1 -18.73706627 -24.1759243 40.04053879
6 -17.34887505 -23.76925278 39.9607811
2 -19.42969513 -21.94952583 43.54677582
5 -18.81194878 -20.48806953 43.57897949
0 -7.420202732 -63.91725922 -29.11777306
5 -6.475521564 -64.94342804 -29.43826294
1 -5.53758812 -61.81330109 -32.10675812
6 -5.714947224 -63.06501389 -33.25518417
1 -4.018592834 -59.69592667 -34.47883224
6 -4.962645054 -60.29840088 -35.8815155
1 -2.834468603 -57.36768723 -36.47507477
6 -3.991805315 -57.55392838 -37.29572296
1 -1.411117673 -54.77293015 -38.38671875
6 -2.985066891 -53.95211411 -38.59262848
1 0.2411911935 -51.34398651 -40.05340195
6 -0.9269995689 -50.50648117 -39.63886642
1 2.117578745 -48.9559288 -40.71170425
6 1.468593478 -48.05772781 -39.84349442
1 4.268116474 -46.37136459 -41.52207947
6 4.330071926 -45.99689102 -39.97773743
1 6.972399235 -43.55430603 -42.43174744
6 7.459488869 -43.85519791 -40.88427734
1 9.47535038 -41.19736481 -43.39801407
6 10.60376835 -41.81894684 -42.43683243
1 11.86858749 -37.73780823 -43.92225266
6 13.06960487 -38.37638474 -43.82733154
1 13.8571043 -34.34180069 -43.4772644
6 14.95770264 -35.05173492 -44.67741776
1 15.5695715 -31.41101456 -43.44414902
6 16.10830688 -31.67465973 -45.01772308
1 17.77439117 -28.88285065 -43.1419487
6 17.28903198 -28.59791374 -44.51494217
1 20.34170723 -25.41308403 -43.06885529
6 19.39487648 -24.78897095 -44.09925079
1 22.59038162 -23.00221825 -42.8459816
6 21.35400772 -22.01392746 -43.09234238
1 25.17734909 -20.18517113 -42.64936829
6 23.90214348 -19.19613647 -41.90230179
1 27.30103302 -18.39067078 -42.5831871
6 26.79244614 -18.00232887 -41.15071106
1 30.36053085 -16.44280815 -42.45713425
6 30.34049034 -16.75151825 -40.93463898
1 33.22189331 -13.83201218 -41.9849205
6 33.69403076 -14.52414608 -41.01498413
1 36.09875488 -11.68363762 -41.43196106
6 37.09355545 -12.81231022 -41.12340546
0 39.00083923 -9.434692383 -41.67116165
5 39.84502029 -10.36479568 -42.47391129
7 -15.90685749 34.6267395 -22.65803337
7 40.82627106 -7.122906208 -31.60919189
8 -4.793288231 -57.54246521 -21.40200996
8 -0.8736781478 -53.99121475 -22.17053413
8 2.382883787 -49.97267532 -24.71105003
8 -2.646317005 -46.62148666 -25.76939011
8 -4.223151684 -43.25769043 -23.81098938
8 -5.466940403 -38.63225174 -22.35566711
8 -4.141279697 -33.3705101 -24.30077553
8 -3.074412584 -30.50209045 -28.68321609
8 -1.571252704 -34.57962418 -33.22743225
8 -3.889479399 -37.40313339 -38.1268692
8 -6.373102665 -36.06965637 -42.80235672
8 -10.32615852 -37.41543961 -46.11128616
8 -15.90613747 -33.90720367 -46.31483459
8 -15.08320045 -28.90281868 -49.61976242
8 -15.20688057 -27.2873764 -55.39507294
8 -18.44202423 -25.14554596 -58.31220627
8 -23.40928078 -22.85995483 -58.9144516
8 -28.59838295 -22.48917389 -56.55182266
8 -29.73692131 -24.96643829 -51.3540535
8 -33.07585907 -25.1878624 -47.45133972
8 -37.48876953 -25.39507675 -46.16763306
8 -42.00401306 -28.94406319 -44.91765213
8 -43.75829697 -34.69368362 -45.73363876
8 -43.13528061 -39.28232193 -43.23545456
8 -39.40871429 -35.82646179 -47.19864273
8 -36.62340546 -39.78524399 -44.01025391
8 -36.50165939 -44.87942505 -43.58307648
8 -38.55775833 -48.11345291 -44.77251434
8 -38.538311 -53.95789337 -43.85838318
8 -43.39191818 -71.48275757 -41.87104797
8 -40.24108124 -75.68888092 -43.36077118
8 -35.67831039 -76.59140778 -47.46099472
8 -29.67862511 -76.26752472 -48.71004105
8 -25.44946098 -74.7541275 -48.42523193
8 -25.38460732 -70.00440216 -45.82978821
8 -27.26579285 -65.21121216 -45.92201614
8 -25.21766853 -61.57514954 -48.23672485
8 -28.82840538 -59.59369278 -53.23894119
8 -27.81585884 -54.49697876 -56.03031921
8 -27.33542252 -50.84721756 -51.16067123
8 -25.23134613 -45.86500931 -49.07589722
8 -25.64092445 -42.63321686 -45.2187233
8 -25.91961098 -41.42842484 -39.41266632
8 -27.34827232 -41.01342392 -34.39193726
8 -29.144804 -36.00151443 -33.53842926
8 -32.80690384 -32.32038116 -31.26627159
8 -33.56656265 -27.36460876 -28.72899055
8 -34.71580505 -22.03118324 -26.73078346
8 -38.63156891 -20.81446266 -24.18710327
8 -42.12668991 -23.78879547 -20.20702744
8 -45.5836792 -27.71528816 -18.57121277
8 -42.72344208 -32.07789993 -16.99253654
8 -38.8354187 -36.27201462 -15.03112698
8 -38.12069702 -40.49312592 -11.25276947
8 -36.93567657 -40.60071564 -5.829673767
8 -31.9338131 -39.40584183 -6.346185207
8 -27.67040825 -39.94639206 -1.93467021
8 -25.22254372 -43.87873459 -4.456676483
7 -20.76999283 -52.87168121 -19.18524742
7 -29.08816147 -18.60052109 42.57057571
8 -18.77004814 49.60086441 0.4469517767
8 -12.70844746 49.81528854 1.860376
8 -8.795189857 50.98256683 6.558079243
8 -5.440940857 54.8544426 9.043860435
8 -0.8382073641 57.4686203 12.01677418
8 2.025285244 61.5928154 12.69142246
8 5.725290298 61.1529007 14.60307693
8 10.54498863 61.76121902 18.04439354
8 13.5914135 66.41923523 16.42930412
8 18.17245674 64.49047089 18.64227867
8 16.65924263 59.11446381 21.6643219
8 15.90356159 53.3956337 21.57408142
8 14.82344437 48.73839569 20.91847038
8 15.31508827 43.75430679 20.16587257
8 21.16592216 45.62744141 20.160326
8 19.56297493 40.18638992 17.79107285
8 20.10689163 34.66492462 17.77376556
8 18.95934677 31.61473274 13.97904873
8 16.42666245 31.96436119 10.28092194
8 15.76110458 37.61291504 7.342840672
8 12.35071373 38.83687973 6.94413805
8 11.47217178 40.01464462 0.8857353926
8 11.9683466 41.43472672 -4.22022438
8 8.426428795 44.62615204 -5.094387531
8 2.406498432 46.61987305 -4.837396145
8 -2.037645102 50.6380043 -5.448176861
8 -5.541626453 52.41452789 -9.001714706
8 -4.855086803 53.80739212 -13.19917011
8 -9.014016151 56.08966446 -14.31201839
8 -17.64363289 58.51259232 -22.85074234
8 -22.17891693 56.23010254 -22.3724041
8 -25.23491478 55.9666481 -26.76587105
8 -30.51389694 55.2432251 -26.78009224
8 -29.71035576 59.71232224 -22.17677689
8 -32.86826324 64.37844849 -24.8751297
8 -30.51741791 68.09040833 -25.57365608
8 -29.25501823 70.93465424 -30.7667923
8 -28.97456932 73.10532379 -35.70880508
8 -30.46961021 73.24895477 -41.08279037
8 -29.93544197 76.28187561 -44.70161438
8 -29.77491379 73.42752075 -49.79806137
8 -33.06716919 68.69591522 -48.85919571
8 -34.419487 65.19154358 -45.07789993
8 -35.01958847 61.02716446 -41.03284454
8 -31.26627541 56.17677307 -39.05210114
8 -31.40018654 50.87936783 -38.73506165
8 -28.14959145 46.70469666 -41.27832031
8 -26.89084244 50.6385498 -46.05282211
8 -25.84720993 48.75387573 -51.49126053
8 -29.56236458 44.79011536 -49.96990585
8 -34.96063995 42.05657578 -51.15819931
8 -32.44540405 37.93421936 -49.96899796
8 -26.51008987 36.80771637 -49.87208557
8 -21.0772934 35.38865662 -47.7369957
8 -17.56654739 36.44699478 -51.82283783
8 -13.17663479 36.4656105 -47.44142151
8 -11.76412296 37.70315552 -42.23841858
8 -10.43879128 35.54766846 -37.25258255
7 -14.59065533 -26.88280678 51.28036499
7 -17.41970253 -65.7434845 -27.29633904
8 46.04100418 -1.66421175 -43.75793457
8 44.88167953 2.079543829 -46.57260895
8 43.0954895 5.653981209 -49.98517609
8 38.06357193 2.976481199 -51.64468765
8 33.63085175 4.201198578 -49.48462677
8 34.86143875 9.30920887 -51.9241333
8 34.56715775 14.96231079 -49.98239136
8 34.24064636 17.7281208 -53.97577667
8 30.93235016 21.45509148 -51.47483444
8 27.90108109 23.49571609 -46.62872696
8 27.02458763 26.45619202 -41.50667191
8 32.60224533 25.41726494 -43.81656265
8 37.22674561 27.32713318 -43.92750931
8 43.05514908 25.63738823 -43.09650803
8 47.66030502 23.74150276 -39.67153168
8 52.12794113 27.08141518 -42.13781738
8 52.70848846 30.03013039 -47.56797791
8 57.70248032 31.1213913 -45.34695816
8 62.56524658 33.09188843 -42.5663414
8 66.56955719 36.35762787 -40.55026245
8 71.32672882 35.93310547 -39.38573074
8 72.74343872 30.08441353 -39.49325562
8 73.72769165 26.25972176 -35.56837082
8 69.03264618 26.70078468 -34.80191803
8 70.38828278 26.19432449 -29.59795761
8 72.14625549 25.19306183 -24.06118774
8 68.62974548 20.73088455 -24.31441498
8 66.15426636 17.7813797 -20.87675476
8 66.28123474 14.31551933 -19.53786278
8 78.45729828 7.334441185 -15.07231617
8 80.86616516 10.70014763 -11.94526196
8 76.95981598 12.72512531 -8.903952599
8 72.09763336 15.06989193 -7.833438873
8 70.66133118 19.45857239 -5.11103344
8 69.97544861 20.40571404 1.155195832
8 64.98552704 18.3888855 4.058891773
8 60.8240242 21.15663528 6.885234356
8 61.37599182 24.37902069 12.27134895
8 64.32470703 22.16808701 16.47924423
8 68.87908173 24.80834389 15.65095139
8 73.18696594 23.9324894 19.72508621
8 75.4853363 18.23594475 18.81113052
8 72.11917114 13.71322823 21.12442589
8 67.83457184 10.85064125 22.15443611
8 70.49064636 10.44199467 27.7513237
8 73.9615097 7.801428795 31.7469635
8 69.44676208 4.332731247 32.61698914
8 64.75006866 1.562501192 34.1231575
8 61.51908493 -1.379557848 29.98628235
8 58.42469406 -4.75531435 30.96895409
8 60.709095 -3.364461184 26.77171707
8 56.43910599 -2.900174379 22.36503983
8 58.23364258 -6.539970398 21.06527328
8 56.49126053 -6.432466507 15.43145943
8 56.84145355 -4.298630238 9.542007446
8 54.97963715 -6.72145462 4.091364384
8 55.7742424 -8.17231369 -2.077479124
8 50.85651398 -11.33831692 -4.109419823
7 49.46498489 -16.93344498 -19.83523369
7 -17.28249168 40.0871582 -10.49443436
8 -35.24720764 -12.09215355 59.50285721
8 -39.89448547 -10.27267647 62.87102127
8 -38.76019669 -8.424921989 68.81715393
8 -34.41131973 -6.980916977 71.65283966
8 -31.67520523 -4.848071098 76.69760895
8 -29.83439064 -3.323035955 82.70659637
8 -24.31146622 -2.057550907 82.33944702
8 -23.99433899 2.020763636 77.66062927
8 -23.76866341 5.679449558 72.85948181
8 -20.34190369 9.807725906 73.12862396
8 -18.73241806 15.84011555 72.55270386
8 -19.82317543 20.69297981 75.13420105
8 -19.35462379 23.73902702 76.43229675
8 -15.75605488 27.83895302 77.33785248
8 -11.59101009 27.62992668 82.09876251
8 -9.16357708 29.89174271 87.17695618
8 -7.376760483 28.60622787 88.65272522
8 -7.759377956 23.23569107 91.09706879
8 -9.099211693 19.2390461 93.93266296
8 -4.093526363 17.66527939 95.30005646
8 1.61040771 19.8626461 97.14430237
8 3.859407663 18.33324623 101.2428513
8 6.252206802 13.26016808 101.34021
8 7.366993427 9.205302238 105.2330475
8 10.14496994 4.212802887 107.3491745
8 11.70008087 -0.2254067212 105.500412
8 11.39545441 -5.717312336 107.2752609
8 10.10552979 -10.07302284 111.5917435
8 11.39853096 -15.03726387 110.0948868
8 4.706650257 -20.47204018 94.73661041
8 9.265107155 -23.48693275 96.15670776
8 9.519193649 -29.1359539 97.3825531
8 8.117527008 -30.31417656 101.7657928
8 7.523429871 -36.44243622 102.6069565
8 12.36812687 -39.6854744 101.5008774
8 15.94920158 -43.01940155 98.6940155
8 14.52271557 -44.70585251 94.03022003
8 17.67029572 -43.84989548 88.01820374
8 22.21131706 -41.73347855 84.55771637
8 21.89249039 -35.97967148 86.28000641
8 20.20578766 -31.35175323 82.81430817
8 18.79498863 -25.79800606 83.5230484
8 16.81959915 -21.80377388 87.10412598
8 22.66390419 -19.19042015 86.89332581
8 27.10123444 -16.65299034 83.7685318
8 28.27653503 -13.70352554 79.52337646
8 26.87396431 -13.33723545 74.65940857
8 22.73294067 -9.349434853 72.51340485
8 21.95121002 -4.468132973 69.73818207
8 22.65460968 1.414888382 67.55021667
8 17.24642754 -0.6146393418 66.80278778
8 11.98300266 -0.1984277964 64.89205933
8 7.828324318 -0.4145565033 60.70148849
8 5.09168911 -5.054634571 58.25925064
8 0.9195927978 -6.364929676 55.45054245
8 -3.694096804 -10.27519989 54.28235626
8 -3.238980055 -12.70567703 50.72304153
8 -4.933911324 -18.31940842 49.31244659
3 -40.07524872 -62.89828491 -40.5670929
5 -39.21495438 -63.57853699 -39.64143372
1 -42.11515808 -60.985672 -37.16411591
6 -40.92905426 -60.84293365 -36.24144363
1 -43.8181839 -59.13756943 -34.32673645
6 -42.82227325 -58.28602219 -33.98704529
1 -45.77991104 -57.32049942 -31.73011017
6 -44.86374664 -56.04273224 -32.03586578
1 -47.74697113 -55.51075745 -29.48546791
6 -47.6225853 -54.34642029 -30.18860054
1 -49.17927551 -53.76720428 -27.46473503
6 -49.66635513 -53.11665344 -28.62681389
1 -51.13447952 -51.87811279 -25.13878632
6 -52.27173615 -51.97373199 -26.02529526
1 -53.04401016 -49.90689087 -23.22680855
6 -54.41699982 -50.66853714 -23.59954643
1 -54.70988846 -47.84624863 -21.02267265
6 -55.6301918 -49.43056107 -20.68011856
1 -56.51256561 -45.90632629 -18.81509399
6 -56.64470291 -47.161129 -18.01151657
4 -57.8466835 -44.23630905 -17.1517067
5 -57.51776886 -44.98994064 -15.67043018
3 -12.1555748 64.5319519 -16.45352745
5 -12.96914196 65.3760376 -15.43946838
1 -10.64524841 68.4670105 -16.55244064
6 -10.61513615 68.67742157 -15.20153809
1 -9.752732277 71.69702911 -16.15685081
6 -8.932728767 71.7419281 -14.62992573
1 -8.940196037 75.1585083 -15.90787125
6 -7.794959068 74.82222748 -15.24165821
1 -8.032019615 79.0753479 -15.82344532
6 -6.354906559 78.3712616 -15.92286015
1 -6.694105625 82.05815887 -15.38178444
6 -7.423774719 82.23567963 -14.21690845
1 -5.511083603 85.17146301 -15.17452908
6 -5.356283188 85.17564392 -13.41161346
1 -3.717075825 88.28438568 -14.92564583
6 -3.03145647 87.97998047 -13.76622295
1 -2.342585325 90.9185791 -14.67738724
6 -0.927957058 90.24297333 -14.37730694
1 -1.210518479 94.01534271 -14.57366943
6 0.2473325431 93.55549622 -15.07944107
4 0.8038865924 97.86267853 -14.65879631
5 1.544662952 97.16165161 -16.0064106
3 69.42948151 4.415708065 -20.12150764
5 68.17115784 3.459157944 -19.64587021
1 69.59280396 2.826502085 -24.11328506
6 68.17971802 3.045237541 -24.21618652
1 70.07991028 1.457591772 -27.23666763
6 68.97190094 2.16606164 -27.57549286
1 70.32574463 -0.1399743855 -31.04235077
6 69.95991516 1.291788578 -31.640625
1 70.61037445 -1.262318254 -34.22464752
6 70.86125946 -0.03097072057 -34.72047806
1 70.49996948 -2.172801256 -37.66979218
6 71.7816391 -1.115970612 -38.28125381
1 70.34999084 -3.597487926 -41.46062851
6 71.96050262 -3.309099913 -41.5071907
1 70.18148804 -5.114196777 -44.99465179
6 71.5874939 -5.690635681 -44.63996124
1 69.66168213 -6.28964901 -48.18286896
6 70.30647278 -7.3756423 -47.78945541
1 69.33429718 -7.738688469 -51.546875
6 69.55877686 -9.182917595 -51.07468414
4 69.19579315 -8.87412262 -54.82600784
5 68.52819824 -10.13553238 -54.39512634
3 3.003601313 -18.9728508 104.8952866
5 2.412222385 -19.96673965 105.7998428
1 0.6872085333 -16.40623283 106.5689621
6 1.175402641 -17.04171562 107.8703918
1 -1.48601377 -13.857131 107.8619385
6 -0.4793364108 -13.76729298 108.9827042
1 -3.585199833 -11.09658813 109.6157379
6 -2.469055891 -10.65331268 110.3501053
1 -5.847280979 -8.585921288 111.1659698
6 -4.816728115 -7.661680698 111.0597
1 -7.976252556 -5.791995049 112.7159882
6 -6.917911053 -4.633502007 111.6700897
1 -9.773605347 -3.48957324 114.1823959
6 -9.771285057 -2.46622324 112.7197266
1 -12.19070053 -0.9445542097 115.8183517
6 -12.99262714 -0.7454012036 114.8287277
1 -14.78563499 0.8411589265 117.5628738
6 -16.11299706 0.4992926121 116.6446152
1 -17.23920822 2.476996899 118.964447
6 -18.08297348 1.332158923 118.8498383
4 -20.210886 3.935400486 120.5690994
5 -20.58154106 2.861092806 120.9322815
9 -85.19665527 -54.5826683 -48.14759445
10 -82.99202728 -51.99597549 -45.29665375
10 -81.3141861 -51.58978653 -39.74053192
10 -80.19784546 -49.87345886 -37.25902557
10 -79.159935 -47.90289688 -32.20295334
10 -76.80384064 -47.13092041 -27.10567856
10 -72.28252411 -46.52153397 -22.41062164
10 -71.98606873 -48.54602432 -17.55109406
10 -69.56710052 -46.27987289 -21.95203972
10 -66.54892731 -42.24579239 -18.13057327
9 -0.144865945 81.42173767 11.59778023
10 3.379169703 81.29175568 8.936919212
10 5.931469917 80.51855469 3.850451946
10 8.035843849 81.14213562 8.15301609
10 13.23005486 81.79239655 7.665176392
10 13.17453384 87.39007568 5.646625996
10 12.65107059 92.53281403 4.324232578
10 10.51858139 93.87779999 -1.593944192
10 5.236143112 96.48344421 -1.736669064
10 4.854324341 99.3456192 -6.495011806
9 111.4094925 -18.29211617 -54.87838364
10 111.8983688 -15.36843872 -55.29489517
10 106.8735962 -14.34472561 -53.6871376
10 100.9692841 -14.3545599 -51.15085602
10 95.73085785 -14.53125668 -49.12885284
10 90.99404144 -12.11807537 -52.08641052
10 86.64739227 -10.93961811 -54.57844162
10 84.15200806 -7.654742241 -55.66330338
10 82.05875397 -10.56965446 -59.74930954
10 75.82155609 -9.379350662 -60.36729431
9 -23.71958542 39.64948273 101.6149902
10 -26.63077545 39.51763916 105.4001999
10 -28.62714577 38.78437042 108.1167297
10 -31.72556496 39.81929398 113.0244598
10 -31.89249992 35.06159973 109.7904587
10 -30.15296936 29.37382507 108.4558411
10 -29.63044167 24.39263916 111.9695969
10 -31.04845238 20.44526863 116.7792664
10 -28.04756927 15.72175217 117.693367
10 -27.46477699 9.180269241 118.3628693
