0 -24.82558441 -38.76940918 57.64735031
2 -24.28488541 -38.13063049 56.37903214
1 -20.32300377 -51.51912308 49.39736938
3 -19.96113968 -52.77920532 50.22154999
0 -16.14349365 -62.01123428 39.57272339
2 -17.39492607 -61.18419266 38.86030579
0 39.10397339 15.89297771 4.526791573
2 37.9678154 16.94802284 3.991533041
1 44.8141861 29.32746506 6.691089153
3 45.0100975 29.14371109 8.369643211
0 52.65740585 42.53871918 10.89717674
2 53.11123657 43.00827026 9.139213562
0 15.73736954 33.10402298 -40.94607925
2 14.18431282 33.21618271 -41.30525589
1 25.89136505 44.45298767 -40.20929718
3 26.53861427 43.39995956 -38.99662018
0 38.00661469 53.53800964 -41.40400696
2 38.04016876 54.07650757 -42.74872208
0 -64.09922028 20.23542213 45.91045761
2 -63.38410568 21.24603462 45.10097885
1 -68.22316742 14.97815323 32.72767258
3 -69.06890869 13.74267197 33.35907745
0 -75.66157532 9.516013145 18.03587914
2 -75.53529358 10.9980545 18.31175613
0 15.43424988 -14.67197323 19.95010948
2 15.34429073 -13.34504128 19.09341621
1 27.2085228 -22.76401329 20.29534721
3 27.41365242 -23.67681313 21.60277939
0 35.50728226 -31.53882599 10.59227848
2 34.75827026 -30.82662773 9.481631279
0 30.86177254 43.63796234 -20.14133644
2 31.66833496 43.62448883 -18.84182167
1 19.25337982 45.95718765 -13.04721642
3 18.79197502 46.30675888 -14.56531429
0 8.404379845 53.04608154 -5.498578548
2 8.985373497 52.54820251 -3.919993162
0 -46.93268204 26.11387634 0.1783634275
2 -45.8231926 25.077528 0.065463081
1 -32.42031479 31.9197197 1.339012384
3 -32.87555313 33.32447433 1.110316515
0 -20.34632111 38.93889999 4.607077599
2 -19.8268795 38.08932114 5.393306732
0 35.74077988 -80.19368744 -12.07848358
2 35.55983734 -79.30400848 -13.40575027
1 44.6374855 -67.87358856 -8.157710075
3 44.81826019 -67.8986969 -6.678078175
0 49.74068069 -53.44102478 -5.110424995
2 50.50727463 -53.8045845 -6.368591309
0 2.807757378 21.87619781 -48.07460403
2 2.625547647 22.41380501 -46.61048508
1 -13.16759968 24.2175312 -47.34671021
3 -13.58410454 24.32189369 -48.74670029
0 -26.99435425 26.51731682 -43.33218765
2 -27.04210281 26.24959564 -42.12798691
0 -80.08538055 23.32066345 5.930807114
2 -81.25109863 23.48204994 6.907864094
1 -79.24517059 35.02973175 -2.913505554
3 -77.62125397 34.64208984 -2.914815664
0 -75.29811096 44.86078644 -13.07243633
2 -76.55843353 44.16479111 -13.43191814
0 -50.37313461 15.33272648 -46.33848572
2 -50.78398895 15.01267147 -44.83366776
1 -47.42658234 0.08037686348 -45.97296906
3 -47.71090317 0.2262154073 -47.41316223
0 -40.27384949 -13.67424679 -48.64443588
2 -39.62565613 -13.47054482 -47.13425446
0 44.67908096 51.66955948 18.71181297
2 44.35037613 50.57713699 17.87569427
1 40.50543976 40.90595245 29.41499329
3 41.3862114 41.29791641 30.64182472
0 36.1391449 27.43788719 37.99798965
2 34.98889923 27.70639992 36.77718735
0 14.71149254 -20.86373329 41.10668945
2 15.36920834 -21.24062157 42.43130875
1 1.663778067 -19.54112625 50.72314072
3 1.05872035 -18.51673126 50.06003189
0 -9.589388847 -23.66189194 59.81183624
2 -9.302305222 -24.79768562 59.90763474
0 -39.18608475 -23.70415497 6.156134605
2 -37.82966232 -23.24323654 6.33446455
1 -47.68813705 -7.691511154 9.710507393
3 -48.8421936 -7.844581127 8.747126579
0 -55.27226257 4.038785458 10.69478893
2 -54.96115494 4.122865677 12.2027874
0 62.48553467 47.9701004 4.508897781
2 61.88158798 46.21208572 4.008322716
1 53.52648163 53.41267014 -7.148340225
3 53.33640289 54.82546234 -6.23939991
0 43.90098953 58.1871109 -18.92707634
2 44.44361877 56.99383163 -19.67220306
0 -10.50618839 52.81576157 5.214615822
2 -9.906878471 52.1198082 4.395732403
1 -10.93272591 50.43514633 19.90982437
3 -11.2695303 51.94887543 20.15410423
0 -12.64189339 47.68065643 34.83401108
2 -12.87122345 46.08667374 34.89595413
0 -41.34504318 1.725241661 48.43386841
2 -41.68403625 1.429571986 46.85451126
1 -39.1500206 -13.68318558 52.56887436
3 -38.35652161 -13.47455215 53.68758774
0 -38.42589188 -28.87660599 53.11551666
2 -39.65248489 -29.31783104 52.67881393
0 65.32394409 11.09496784 -5.117690563
2 65.35241699 9.787082672 -5.129023552
1 60.98028564 12.58047009 -19.4024086
3 59.99204636 13.55019855 -19.22453308
0 52.79391861 10.47640133 -33.57637405
2 54.12372208 9.808175087 -34.29553604
0 36.59783936 -29.81610107 -61.42050171
2 36.82686996 -29.0387516 -62.50340271
1 40.52689362 -15.76830196 -52.79729843
3 39.72759628 -16.39155388 -51.48088455
0 48.50894547 -3.146262407 -48.60470581
2 49.91141891 -3.069842577 -49.92674637
0 0.521715939 -23.62248993 -65.30012512
2 1.253996372 -23.25736237 -64.11760712
1 -14.55437469 -17.48309326 -67.70874023
3 -14.58368969 -17.33592796 -69.34954071
0 -31.28120804 -19.903162 -65.81393433
2 -30.72869682 -20.43793869 -64.78634644
0 -42.04120255 -27.29221153 -51.60204697
2 -41.36713409 -25.75204468 -51.58932877
1 -35.40462494 -28.81648445 -36.91146088
3 -36.4978714 -29.88801384 -37.03276825
0 -34.31072617 -31.65237236 -22.92832565
2 -32.86630249 -31.19305801 -22.21672821
0 -3.591231585 -54.63923645 16.66648293
2 -4.351000309 -53.12801743 16.26814651
1 4.866964817 -57.45795822 4.331067562
3 4.456781864 -58.93198013 3.684081078
0 15.76171398 -56.77505112 -6.175734997
2 15.72753811 -55.27381516 -6.196234226
0 -62.14051056 45.22969818 -15.95755672
2 -62.20897675 43.74405289 -15.17580414
1 -58.67436218 37.5042572 -28.42905045
3 -58.86853409 38.70911407 -29.29242134
0 -52.26475906 30.71847343 -40.38500977
2 -51.61579895 29.87887955 -39.53395462
0 38.47022247 -7.034021378 -29.53656387
2 37.95822144 -7.783802032 -28.38763428
1 26.6900959 0.5605357289 -34.21430206
3 27.69499588 1.44446826 -34.81173706
0 12.89267349 5.910152435 -40.26120377
2 12.26870346 4.231283665 -40.38973999
0 -24.90036201 42.08021164 56.36777115
2 -23.58929825 42.15760422 55.735672
1 -35.18524551 34.33365631 48.90066147
3 -35.89372253 34.76242065 50.49915695
0 -46.9160614 29.42098236 41.22031784
2 -46.31214142 29.71307182 39.92429352
0 18.40423775 16.83746338 69.58389282
2 17.26725388 15.65606308 69.53599548
1 8.080780983 28.28928757 65.47602081
3 9.008954048 28.98838234 65.96147919
0 -4.010185719 37.28081131 64.43118286
2 -4.805048466 36.0616188 63.5609436
0 -16.82214165 -56.25127411 21.77045059
2 -15.32463741 -55.11549377 21.28820229
1 -24.77529526 -50.75627518 9.748379707
3 -25.90387726 -51.26132584 9.583212852
0 -29.42073822 -44.6796875 -3.896363735
2 -28.20554161 -44.14599991 -3.824618816
0 19.71767807 -60.02316284 -22.16248703
2 20.48106956 -59.4559021 -20.76386642
1 19.70104599 -46.1135788 -32.45248032
3 19.53562164 -46.76738358 -34.16491318
0 17.13780785 -35.51168442 -42.07593155
2 16.52863503 -34.72640991 -40.94924164
0 55.90779114 -31.74217987 7.869990826
2 54.7748642 -31.93611908 6.846373558
1 54.73191452 -16.84272957 8.821503639
3 55.16786194 -16.96011734 9.87082386
0 52.57875443 -3.16317296 6.751987934
2 52.54238892 -3.572702646 5.427857399
0 37.21178818 11.34747982 61.20404434
2 36.1841011 12.30470371 60.15890884
1 29.67891884 -0.1268763542 52.23887634
3 30.80005646 -1.168495893 52.52656937
0 22.90585518 -10.32462597 43.87376785
2 21.76803398 -10.01327515 44.56997681
4 -58.77952194 23.43476868 -51.43955231
4 -50.01264954 -30.67280579 -46.06215286
4 -43.52389145 -24.49035454 -7.640424728
4 -61.80281067 19.11040688 9.16414547
4 -73.46905518 57.64254379 -13.39861965
4 50.23415756 52.47121048 24.68601036
4 43.17181778 13.6989584 43.94874191
4 22.84157372 -4.98272562 25.02532387
4 49.67516327 -24.23423004 18.12962914
4 38.25607681 4.690481663 17.58225632
4 12.25628185 -13.62013149 37.16090393
4 -18.93569374 -24.79188156 68.30804443
4 -0.4662911296 -55.70018387 30.68652344
4 28.90921021 -66.69613647 -1.156785727
4 40.87269211 -43.52291489 4.112504005
4 27.60463905 17.93380356 76.46133423
4 -18.85604286 40.65607834 73.17141724
4 -38.47237015 19.38325119 52.11853027
4 -23.12828255 -22.60625458 47.93194199
4 18.55966377 -26.12759781 39.81980133
4 51.17882919 61.84387207 12.41642761
4 25.89878845 60.10848236 -25.06960297
4 1.118838191 62.20368576 0.04052907601
4 -9.280708313 51.38179398 53.23410034
4 28.20378113 22.38114166 54.43592834
4 49.61345291 19.32949829 -8.152832031
4 44.43922043 1.379217863 -24.03513527
4 8.81300354 21.742836 -31.34244919
4 34.48068237 68.96638489 -30.49497223
4 65.75531006 35.38372421 15.30199814
4 60.98976898 -47.86399841 5.911077976
4 27.20585251 -72.5200882 -27.21020317
4 24.46171951 -27.27304459 -47.30817795
4 43.0057869 14.56196594 -46.5267868
4 56.22848511 12.75697899 7.035189152
4 44.47743225 45.26234818 -29.25742722
4 12.89274025 26.33939362 -53.27392578
4 -40.07242584 38.26906204 -46.96244812
4 -49.73037338 32.3505249 -18.19131279
4 -8.487534523 45.44456863 -6.468866348
4 53.07042313 -13.83240128 -38.28653717
4 19.06885338 -25.40516281 -65.55515289
4 -34.59547424 -3.333416939 -59.12969589
4 -38.66809845 18.01552391 -49.01148224
4 6.59016943 13.25574589 -49.85245132
4 4.147611141 -64.63636017 -12.75949478
4 -15.47582722 -67.75087738 10.58368587
4 -38.53704453 -46.44979858 -18.70379829
4 -42.59229279 -29.73218346 -68.84241486
4 4.306600094 -35.05899048 -51.91442871
4 -38.00115204 -31.98883629 68.82659149
4 -53.51348877 8.458198547 53.33494568
4 -71.83280182 -3.324599028 5.562953472
4 -45.44674301 -38.41140366 4.083750248
4 -14.44075584 -68.18373871 35.46063232
4 -25.03308296 55.34895325 44.29529953
4 -28.08403015 47.11731339 7.653515339
4 -59.61016846 36.43373108 -5.83300972
4 -86.04839325 12.26366901 18.89732933
4 -60.47695923 37.58292389 48.96867752
