0 36.59051514 38.01916504 59.59954834
2 35.74837494 37.78885651 60.88570023
1 31.1746006 38.39772797 58.67097473
3 30.8059082 39.3380127 60.2468605
1 27.78262329 38.34506607 57.88569641
3 27.32324028 39.88977814 58.53620148
1 24.42057228 38.19761276 56.2671051
3 24.24607277 39.62226868 56.4129982
1 20.81235886 38.06020355 55.06819534
3 21.07607269 39.17963028 54.1799736
1 17.26688194 38.04875946 53.87567902
3 17.74615097 38.57234192 52.3586235
1 13.79106808 38.50709152 52.68968201
3 14.00337791 37.927845 51.11014557
1 10.50943661 38.73747253 51.50975037
3 10.41010189 37.41334915 50.2828598
1 6.83954668 39.351017 50.39809036
3 6.764888763 37.62436676 50.03349686
1 3.291616917 39.61089706 49.30858612
3 3.105144739 38.26174545 50.1025238
1 -0.1604137272 39.97333527 48.6386528
3 -0.3401985466 39.72055054 50.13628387
1 -4.08134079 39.74822998 47.74911499
3 -4.49685812 40.09592056 48.98750305
1 -7.356091499 39.4389534 46.39564133
3 -7.854656696 40.52110291 47.43891144
1 -11.13543797 38.92380905 45.49353409
3 -11.32687855 40.33756256 45.48136902
1 -14.3740139 38.32988358 44.87123108
3 -14.39072037 39.68654633 44.16384506
1 -17.85293579 37.4377594 43.88394928
3 -17.68610573 37.88214493 42.90749741
1 -21.02991676 36.85903168 43.09223175
3 -20.47916222 35.75770569 42.20389557
1 -24.58421707 36.342659 42.34178162
3 -24.60373878 34.79479599 42.62560272
1 -28.1836853 35.79327393 42.24270248
3 -28.21442032 34.63729095 43.4889679
1 -31.46652985 35.52899933 41.92419434
3 -31.52542496 35.38556671 43.41307831
1 -35.23124695 35.25992203 42.00469971
3 -35.241745 35.87586594 43.2147789
0 -39.87027359 35.32762909 41.51049423
2 -39.93621445 36.58998871 42.06641769
0 29.98678017 -43.64546204 25.91670227
2 30.4691124 -42.27774048 26.03271866
1 26.37642097 -41.89289093 25.13064766
3 26.66176224 -40.81505585 23.98699188
1 23.43150711 -40.59798431 24.45488739
3 23.78987885 -40.60267639 23.1571331
1 20.07780838 -39.35317612 24.25991631
3 19.89920998 -40.13763809 22.87507057
1 16.88128662 -38.63290024 24.28314972
3 16.37836075 -40.08871078 23.58486557
1 13.71181488 -37.88593674 24.48710251
3 13.45562172 -39.32310104 24.88030243
1 10.12675762 -37.53910065 24.89097977
3 10.17247581 -38.64386749 25.83552933
1 6.531890869 -37.62565994 25.62684631
3 6.989188671 -38.05614853 27.25497246
1 4.096877575 -37.55687714 26.14901924
3 4.000370502 -36.79100037 27.76690292
1 0.7452768683 -37.7160759 26.63245773
3 0.8053431511 -36.36563492 27.1436615
1 -2.203617573 -38.57736969 27.41291618
3 -2.798150063 -37.34938049 27.41549873
1 -5.183074474 -39.57638931 28.52554131
3 -5.980986118 -38.37387848 27.63526726
1 -8.360035896 -40.56210327 29.7711277
3 -8.809692383 -40.25134659 28.53779602
1 -11.58727074 -42.06748581 31.14655304
3 -12.02309036 -42.59262848 29.95870209
1 -14.0238533 -42.98394394 32.59335709
3 -14.01667213 -44.22411346 31.60294914
1 -17.07468796 -44.14331436 34.23666763
3 -16.89701462 -45.69245529 33.89650345
1 -19.8579464 -44.78668594 35.69161224
3 -19.11068726 -46.13747025 36.23501968
1 -22.54765892 -45.22586441 36.92218018
3 -21.8356266 -46.10713577 38.12205505
1 -25.56183434 -45.82254028 37.95164871
3 -25.35144043 -45.53243256 39.33788681
1 -27.93928146 -46.26685715 38.74373245
3 -28.0383873 -44.94297791 40.10219193
1 -31.58746719 -46.93267441 39.62556076
3 -31.99054527 -45.52486801 40.11209488
0 -36.09407425 -47.3504715 40.96855545
2 -36.21735764 -46.21986771 40.05207443
0 30.9107933 -41.00105286 -55.37065125
2 30.40052605 -41.08192062 -56.8432045
1 27.32786751 -41.11420059 -52.61681747
3 28.08568764 -40.06130981 -51.64820099
1 24.78189468 -41.55735016 -50.39797211
3 24.88006973 -40.0670433 -50.0708847
1 21.99057579 -41.8105011 -47.91273117
3 21.06141281 -40.44258499 -48.41005707
1 18.52497673 -42.39107895 -45.09200287
3 17.41161346 -42.01712418 -46.04445648
1 15.76935387 -43.07032013 -42.93922424
3 15.18953514 -43.59489822 -44.30526733
1 13.0739851 -43.65370178 -40.82624435
3 12.92865562 -44.76854324 -41.60992432
1 10.13026905 -44.59742737 -38.99783707
3 10.53757286 -45.99512863 -39.46274567
1 7.252889156 -44.96834183 -37.45464325
3 7.735722542 -45.95424652 -36.73196411
1 3.914459229 -45.49133682 -35.83956528
3 4.68809557 -45.71730804 -34.57240295
1 0.6136345863 -45.95223999 -34.26654434
3 1.252075195 -45.14761734 -32.85122681
1 -2.104616404 -46.42240143 -32.46313095
3 -1.804016948 -45.16085434 -31.52709389
1 -5.356509686 -46.64108658 -30.8365078
3 -5.284719467 -45.07578278 -30.89630318
1 -8.356550217 -46.98897934 -29.41453743
3 -8.667232513 -45.65459824 -30.08961487
1 -11.65682411 -47.39542007 -28.25680733
3 -12.01308918 -46.78331375 -29.77065468
1 -15.41178608 -47.88626099 -27.67981529
3 -15.5917654 -48.1170845 -29.32970619
1 -18.46216583 -48.08322525 -26.99952888
3 -18.91604805 -49.15457535 -28.02334213
1 -22.00853539 -47.99800873 -26.50169373
3 -22.12265968 -49.43500137 -26.75226974
1 -25.51655006 -47.44308853 -26.26515007
3 -25.72572327 -48.8126564 -25.8113842
1 -28.65242958 -46.83563232 -26.40328217
3 -28.91608429 -47.86400604 -25.12274551
1 -32.0658226 -45.68022919 -26.72875404
3 -32.20581818 -45.82594681 -25.23596191
0 -36.99690628 -44.16234589 -26.27379417
2 -36.81027985 -43.23048019 -25.16082764
0 49.68323135 -35.28118134 -61.84852982
2 48.72156143 -34.52164459 -62.80766678
1 50.38521957 -31.18230057 -60.28742599
3 49.17087555 -31.01968002 -60.36745071
1 50.90913773 -27.66833496 -59.50327682
3 49.57326508 -27.46118355 -58.43803406
1 51.27304459 -24.10004997 -58.69026566
3 50.81190491 -24.04022408 -57.12679672
1 51.30654144 -20.74100876 -58.28263474
3 51.52791595 -20.89260292 -56.93526459
1 50.91674042 -16.71442986 -57.15395355
3 52.34005737 -16.82663345 -56.447155
1 50.34682846 -13.82888603 -56.37675476
3 51.61991882 -13.38536835 -56.51516342
1 49.22127151 -10.4048605 -55.12234879
3 50.1823349 -9.454506874 -56.11553955
1 48.32623672 -7.228248119 -53.47686386
3 48.49433136 -6.788620472 -54.68980026
1 47.41266632 -4.173316479 -51.42749023
3 46.69016266 -3.768830776 -52.62581635
1 46.98963928 -1.024577498 -49.56787872
3 45.74584198 -0.7049863338 -50.23109055
1 46.50722504 2.817455053 -48.27495575
3 45.83178711 2.351770878 -47.09654236
1 45.89683914 6.14553833 -47.00681686
3 46.29304504 5.753360748 -45.59954834
1 45.2975502 9.998156548 -46.06202316
3 46.30920792 9.910344124 -44.90380859
1 44.64403534 13.08506298 -45.55249023
3 45.88202286 13.31933689 -45.17023468
1 44.51501083 16.30810928 -45.02786636
3 46.14391708 16.56941223 -45.64654541
1 44.49569321 19.75349998 -44.34617996
3 45.33351898 19.84514809 -45.6095047
1 44.61074066 23.23194122 -43.92407227
3 44.29431152 23.55413055 -45.45881271
1 44.72922134 26.84748077 -43.44010544
3 43.82607269 27.45086098 -44.53894424
1 45.00524902 30.24521828 -43.45397186
3 43.62313843 29.9955864 -43.64965057
1 45.38685226 33.66828537 -42.92442322
3 43.93429565 33.94610977 -42.52226639
0 45.78583908 37.91273499 -42.40687943
2 45.14740372 37.74097824 -40.98471069
0 27.80275917 51.45095062 -42.71223068
2 27.52087021 50.15294647 -41.74995422
1 23.83236313 51.84116364 -44.01791382
3 23.65343285 51.71567917 -42.63170624
1 21.12036896 52.01477814 -44.71258163
3 20.7217083 52.58921051 -43.21522522
1 18.6228981 52.04280853 -45.75119019
3 18.19058418 53.61834335 -44.84826279
1 15.15534019 51.8543396 -46.95093536
3 15.19454575 53.26718521 -47.15068817
1 11.86653805 51.37260056 -47.75803757
3 11.99300861 52.36973953 -49.0454216
1 8.636976242 50.42432022 -48.49010468
3 8.979250908 50.65487671 -49.88669205
1 4.953924656 49.51674271 -49.26152039
3 5.460607052 48.75115204 -50.52243423
1 1.608054399 48.28696442 -49.68088913
3 1.969883204 46.7459259 -49.99113464
1 -1.087970138 47.06175613 -49.74294662
3 -0.5596934557 45.72676849 -49.20700073
1 -3.995757818 46.27714157 -50.10421753
3 -3.969297647 45.60161591 -48.59688568
1 -7.610290527 45.02737808 -50.24499512
3 -7.632331371 45.29212952 -48.86912155
1 -11.18113804 44.36355209 -50.09385681
3 -11.33242989 45.26470566 -49.07493591
1 -15.15061855 43.90267944 -49.67273331
3 -15.35254097 45.38599014 -49.3355484
1 -18.02639961 43.70225906 -49.54667282
3 -18.36991501 44.98461151 -50.23673248
1 -21.18648911 43.59753036 -48.80636978
3 -21.46360016 44.13387299 -50.13152695
1 -24.22167778 43.67340851 -47.7856369
3 -24.70377159 43.34889984 -49.25822449
1 -27.45081329 44.11748886 -46.67591858
3 -27.91244125 42.80807495 -47.53473663
1 -30.52340317 44.47740936 -45.59196472
3 -30.7783947 42.80384064 -45.69918823
1 -33.43753052 45.02351379 -44.18355942
3 -33.56074905 43.86659241 -43.28753662
1 -36.86338806 45.28572083 -42.6677742
3 -35.89748383 44.62485123 -41.22979736
0 -40.42094803 45.33560944 -40.72751999
2 -39.79473877 46.03820419 -39.39123535
0 -32.31708527 -28.35945511 -41.57429886
2 -32.63957977 -27.91279411 -40.23847961
1 -33.17248535 -24.79083443 -42.09995651
3 -32.40964127 -24.47397804 -40.85538101
1 -33.86897659 -21.51059151 -42.20455933
3 -32.47009659 -21.22692871 -41.75998688
1 -34.52625275 -18.6596489 -42.49347687
3 -33.03316498 -18.26092148 -42.86815262
1 -35.87439346 -15.22224712 -41.80934906
3 -34.97212982 -14.77515888 -42.85713577
1 -37.01613617 -11.97947311 -40.9705925
3 -36.99921036 -11.37234402 -42.18374252
1 -38.79019165 -8.548428535 -39.2685318
3 -39.30088806 -8.073185921 -40.80534744
1 -40.09168625 -5.629945755 -38.20796967
3 -41.38949585 -6.093326569 -39.17259216
1 -41.91879654 -2.627665281 -37.07626343
3 -42.91431427 -3.658280611 -36.88501358
1 -43.82561493 -0.2807814777 -35.64371872
3 -44.37984085 -1.330860734 -34.78005219
1 -45.76286697 2.705713987 -34.01222992
3 -45.48027802 2.042546749 -32.91295624
1 -47.43662262 6.040950775 -31.68282509
3 -46.33773804 5.929159164 -30.76543427
1 -48.65370178 9.199875832 -29.44101715
3 -47.26091003 9.440782547 -28.9443531
1 -49.72972488 11.56972027 -27.62952614
3 -48.54008865 12.30536461 -27.86379814
1 -50.62196732 14.29983616 -25.95308495
3 -50.02341843 15.09027004 -27.3080864
1 -51.01086426 17.23037338 -24.19205475
3 -51.40629578 18.00936508 -25.30889511
1 -51.01480484 20.19068909 -22.6836338
3 -52.28552628 20.87194252 -23.82607841
1 -50.58004761 23.66546249 -21.3367424
3 -51.95714569 24.21754074 -21.76129723
1 -50.10580826 26.78545189 -20.52729607
3 -51.46417618 27.0187912 -20.15468216
1 -49.21541977 29.5688839 -20.09645271
3 -50.00594711 29.67437363 -19.10918427
1 -47.75311661 32.42856979 -20.09775543
3 -47.77013016 32.31028366 -18.75090981
0 -45.65237427 36.62534332 -20.41527939
2 -44.73022079 36.09728622 -19.47870064
0 -38.15678787 53.8502655 -29.76698875
2 -37.16020584 53.18047333 -30.17023087
1 -36.67393112 54.28652954 -25.46389771
3 -35.01866531 54.43504715 -25.9646492
1 -35.3685379 54.65805435 -21.92401123
3 -34.35915756 55.76353073 -22.56948662
1 -34.21474838 55.11210251 -18.35778999
3 -33.83757782 56.67815781 -18.6649456
1 -33.56962967 55.76949692 -15.18385601
3 -34.1169548 57.19234848 -15.46778011
1 -32.91129303 56.53276062 -12.52234459
3 -34.42660141 57.67549896 -12.50946712
1 -32.62333298 56.52105331 -9.241500854
3 -33.9633255 56.66995621 -9.17912674
1 -32.02301407 56.75332642 -5.712673664
3 -33.50172424 56.06287384 -5.538841248
1 -31.75217056 57.30470276 -3.097145557
3 -32.324543 55.94874954 -3.028574228
1 -31.81173897 57.29158783 0.690417707
3 -31.65698624 55.94625092 0.9690300822
1 -31.62084389 57.91529465 4.47533083
3 -30.54630852 56.42866516 4.61317873
1 -31.39577103 57.87133026 8.69665432
3 -30.24050903 57.34955978 8.800893784
1 -32.13894653 57.52080536 11.95779133
3 -30.63482094 57.64708328 12.38530922
1 -32.86804962 56.99115753 15.51457596
3 -31.87966537 57.87476349 15.91753674
1 -34.18743515 56.52070618 19.26783943
3 -33.55477142 57.91571045 19.86515045
1 -35.53187561 55.57828903 22.12020874
3 -36.02050018 56.95493698 22.520504
1 -37.0835495 54.3374939 24.88856125
3 -37.98261642 55.17982101 24.46321297
1 -39.14165878 52.4438324 27.76973534
3 -40.28126144 52.52016449 26.73007202
1 -40.99248505 50.69367218 30.47337532
3 -41.85186005 50.06451797 29.35249901
1 -43.20267105 48.63437271 32.50684738
3 -43.22333527 47.4131012 31.49972916
1 -45.72911453 46.59614563 34.47503662
3 -45.03648376 45.36228943 33.97847366
0 -48.31552887 43.83372879 36.60211945
2 -47.07619095 43.07780075 36.81653595
0 -29.90622711 -33.08763504 48.37444305
2 -29.67172432 -33.73740768 46.94760513
1 -30.4829464 -28.92053223 46.71824646
3 -31.26865005 -29.4148159 45.53950882
1 -30.82959557 -26.18113708 45.20238113
3 -32.31538391 -26.74115372 44.73515701
1 -31.60460281 -23.25708008 42.82966995
3 -33.09778214 -23.3753891 43.58844757
1 -32.51141357 -20.90995598 40.8504715
3 -33.50830841 -20.05121422 41.78913498
1 -33.44100189 -18.37810326 38.16382217
3 -33.45404053 -17.42575264 39.25837326
1 -34.12906647 -16.05355263 36.01479721
3 -33.27656937 -15.11736965 36.79619217
1 -34.98114777 -13.75162888 33.95817184
3 -33.57085419 -12.96286201 34.29240036
1 -35.54851913 -10.94963074 32.22995377
3 -33.8148613 -11.17953873 31.88082314
1 -36.16495132 -7.806074142 30.26045609
3 -35.01895523 -8.139613152 29.08348083
1 -36.83688354 -5.030121803 28.6391201
3 -36.3144455 -5.642553329 27.46922684
1 -37.41223907 -2.293139935 27.34988785
3 -37.39859772 -2.829007864 25.8939743
1 -37.81938934 0.7618893385 25.66035271
3 -38.89030075 0.1273536831 24.68058395
1 -38.32190323 4.43921423 23.79245377
3 -39.87965393 4.148572922 23.37813377
1 -38.3189621 7.361010551 22.55974007
3 -39.59184647 7.50260973 22.96979523
1 -38.79570007 10.98952103 21.34913635
3 -39.61256027 11.08532619 22.70280266
1 -39.29515839 13.90678978 20.2622509
3 -39.41918945 14.4216547 21.49632645
1 -40.34197235 17.0651226 19.46003723
3 -39.66148376 17.50661469 20.45585251
1 -41.14558792 20.47542381 18.65769577
3 -39.93636322 21.1582489 19.41500092
1 -42.34276962 23.82452583 17.94974518
3 -40.86922073 24.47784615 17.79414368
1 -43.61867142 26.456007 17.46919632
3 -42.68880463 26.73764801 16.55913925
0 -45.43988419 30.63262749 17.4587822
2 -45.12039948 30.71002388 15.89151764
0 46.99069595 49.69924927 -32.07743073
2 46.31560898 48.3494606 -32.63787842
1 46.90005875 47.59325409 -28.04877853
3 47.1621666 46.16713715 -28.63562775
1 46.98189545 46.09296036 -24.31964111
3 48.13123322 45.3297081 -24.76496696
1 46.94985962 44.4752121 -20.3293457
3 48.32173538 44.36816788 -20.42014885
1 46.71607971 43.1643219 -17.47382736
3 47.94009781 44.14765549 -16.55390167
1 46.19443893 42.28527069 -14.67703438
3 46.616436 43.92165756 -14.15203285
1 45.91127396 41.78887177 -11.3369112
3 45.52248383 43.09292221 -10.84777355
1 45.76268005 41.25891113 -7.302658081
3 44.75167847 42.18912506 -7.209545612
1 45.96112823 40.76337051 -3.983440876
3 44.64134216 41.16917419 -3.700389862
1 46.45646286 40.24994659 -1.20397675
3 45.10160446 39.90269852 -0.9918039441
1 47.0578537 39.75696945 1.711360693
3 45.66471863 38.61643982 1.777994275
1 47.81632233 38.98178101 5.568647861
3 47.21818924 37.41506958 5.205127239
1 48.23240662 38.2170372 9.018279076
3 48.67841721 36.83833313 8.704311371
1 48.96894836 37.27985764 12.26430798
3 50.32855988 36.47554779 11.59418392
1 49.218853 36.30636978 15.66463757
3 50.70882416 36.42839432 15.58494091
1 49.39876175 35.36698532 18.94724274
3 50.72348404 35.97626114 19.08675003
1 49.73103333 34.16439438 22.40240097
3 50.52897644 35.62302017 22.76551056
1 49.78686142 33.42613602 26.08354187
3 49.43312836 35.11822891 26.29159927
1 49.78787994 32.82873154 28.67630959
3 48.86733246 33.96450806 29.00395584
1 49.81558228 31.92646217 32.31079102
3 48.46469879 32.5104599 32.27638626
1 49.95271683 31.39050674 35.23093796
3 48.64735031 31.17960548 35.20124817
0 49.67177582 31.1590786 39.32863235
2 49.24247742 29.57737923 39.09011841
0 51.43147278 26.73801804 51.19311142
2 50.46390152 27.28624535 50.0294342
1 49.49205017 23.23252106 50.45017624
3 49.65592957 23.49039841 49.06882095
1 47.65520477 19.83341599 49.9173584
3 48.41077042 19.72285843 48.88667297
1 46.02755737 17.3058548 49.59786606
3 47.44924927 16.81242371 48.88089752
1 44.39684296 14.18828869 49.28873444
3 45.93284607 13.69209957 49.55956268
1 43.44301605 10.62697697 48.83723831
3 44.33256149 10.36218834 50.38264465
1 42.8427887 7.2550807 48.54847336
3 42.79516602 7.224917412 50.2653389
1 42.71091461 3.609532833 48.40401459
3 41.56312561 3.540584803 49.75522995
1 42.39925003 -0.0532537289 48.03895187
3 40.97389984 -0.09920033813 48.41384125
1 42.08758926 -3.947970867 47.73371506
3 40.85677338 -3.908574581 47.36458588
1 41.89063263 -6.948227406 47.37791824
3 40.72232437 -6.824789524 46.28274536
1 41.29007339 -10.54229832 47.33717346
3 41.23340988 -10.33909225 45.75353241
1 41.42952347 -13.19713497 46.75995255
3 42.03551102 -12.95811844 45.48270035
1 41.6204567 -16.2387085 46.35548401
3 42.91539383 -16.0484333 45.63869095
1 42.07663345 -19.40680504 45.9799614
3 43.44831467 -19.31915474 46.55545807
1 42.55015564 -22.6179409 45.2590332
3 43.408741 -22.87145615 46.34889603
1 43.50641251 -25.74887276 44.72334671
3 43.49763489 -25.8759861 46.33983231
1 44.27113342 -30.22459221 44.22399902
3 43.41945267 -30.70558167 45.40960312
1 44.58764267 -33.7533989 43.09978867
3 43.27188873 -34.04577255 43.68489456
1 44.91584396 -37.53168488 42.0873642
3 43.39418411 -37.71950912 41.71583939
1 45.41485977 -41.01911163 40.85478592
3 44.08008194 -40.84291458 39.93025589
0 46.09622192 -45.27666473 39.24261475
2 46.09929657 -44.59487152 37.58486176
0 54.15229034 -50.18516159 27.91534996
2 53.61326218 -48.83416748 28.2325592
1 54.35511017 -49.44544983 23.19976425
3 54.60699844 -47.99308014 23.40289497
1 54.06196594 -48.79094315 20.02956963
3 55.45207214 -47.7725296 20.08415985
1 54.10426712 -47.67537308 16.24767685
3 55.34543228 -47.36581039 16.36468315
1 54.10248184 -46.51321411 13.5976963
3 55.75935745 -47.06349945 13.31643295
1 53.87322617 -45.2120285 10.44298649
3 55.01826096 -46.47548294 10.112957
1 53.9025116 -44.35063553 7.730332851
3 54.1931076 -45.86346436 7.319075108
1 54.33377457 -43.28337479 4.118724346
3 53.80785751 -44.40525436 3.769065857
1 54.95260239 -42.13255692 0.9665333629
3 53.38435745 -42.59832764 0.5956912041
1 55.46048355 -40.30900192 -2.251138449
3 53.62594223 -39.99961472 -2.159117937
1 55.66721725 -39.00730515 -4.8521595
3 54.6698494 -37.96520233 -4.301989555
1 55.0928154 -37.10713959 -8.96487999
3 54.97396851 -35.73352051 -8.346347809
1 54.4987793 -36.10173416 -12.20001411
3 55.19911194 -34.41531754 -12.07021427
1 53.20624542 -35.16970062 -15.98834515
3 54.49224854 -33.8559227 -16.11254501
1 52.39517212 -34.35932159 -18.90758514
3 53.93297958 -33.81787491 -19.42959404
1 51.22699356 -33.58847046 -22.12752724
3 52.57076645 -34.17844009 -22.87150383
1 49.47557831 -32.92168808 -25.18080521
3 50.12131119 -34.11029816 -25.8650589
1 47.82646179 -32.0031662 -27.78673172
3 47.42557907 -33.63013458 -28.11592674
1 45.72469711 -30.88097572 -30.72509384
3 44.847229 -31.98828888 -30.19625473
1 43.83861923 -29.49462128 -33.23192215
3 42.62378311 -30.01216507 -32.60420227
1 42.0235939 -28.17844391 -35.65642166
3 40.85800934 -27.52972221 -34.70228195
0 39.83999252 -26.14114952 -38.98813248
2 39.85569763 -25.06513596 -38.32782364
0 -48.85509109 -32.00547409 -35.44751358
2 -47.25104904 -31.99036026 -34.60874939
1 -51.04598618 -30.15109634 -31.12345886
3 -49.83843994 -29.25451279 -31.0461235
1 -52.025177 -28.9795208 -27.65320778
3 -51.39340973 -27.30672073 -28.04449081
1 -52.83275223 -27.85363197 -24.51820183
3 -53.02279663 -26.31713676 -24.93396378
1 -53.77798462 -26.96123314 -21.50261116
3 -54.56251907 -26.11738586 -21.71835709
1 -54.39414215 -26.45158386 -18.18008423
3 -55.7409935 -25.99189377 -18.42003441
1 -54.96955109 -25.94157982 -14.62194538
3 -56.40284729 -26.39715958 -14.73168278
1 -54.96364975 -25.73596573 -10.86157131
3 -55.89416122 -26.97183037 -10.80202579
1 -55.06762314 -25.7375927 -6.9715662
3 -55.1723938 -27.61468124 -7.174826145
1 -55.12841034 -26.15182495 -3.359934807
3 -54.44421005 -27.45169449 -3.726956606
1 -55.21386337 -26.84063721 0.4618054926
3 -53.97941971 -27.42772865 0.4988498688
1 -55.34228134 -27.40620995 3.206534147
3 -53.9397049 -27.00960922 3.174231291
1 -54.89208984 -27.86268425 6.880676746
3 -53.48822021 -26.68032455 6.873117924
1 -53.7592926 -28.15848541 10.55210972
3 -53.61346054 -26.6837635 10.85419178
1 -52.90246964 -28.65991783 13.53791809
3 -53.67119217 -27.3968277 13.79445648
1 -52.2845459 -29.14743996 16.27659416
3 -53.81509018 -28.48880005 16.69809532
1 -51.54972839 -29.85778236 20.17113495
3 -53.31232452 -29.93226051 20.33595848
1 -50.94665146 -30.6085968 23.62246704
3 -52.01540375 -31.52427864 23.59015083
1 -50.29655457 -31.45967293 26.38733864
3 -50.61989212 -32.78198624 25.95236588
1 -50.05659485 -32.56864929 29.55227661
3 -49.48302841 -33.85874939 28.68577766
1 -49.75878906 -34.07206345 32.29862976
3 -48.71409607 -34.78636551 31.95883369
0 -48.40048218 -35.13645935 36.42888641
2 -46.98189545 -34.96419525 36.15327835
4 -40.24992752 33.50837708 31.95042992
4 -41.71667099 37.04754639 28.48298454
4 -42.39948654 38.11361694 22.60652733
4 -27.22863388 -41.58938599 52.8463974
4 -30.63063622 -45.62791824 52.51728058
4 -35.86270905 -46.44929504 51.14191818
4 28.92180824 -47.63027573 35.3885231
4 33.8645668 -49.82294464 37.55150986
4 37.89868927 -51.4248085 40.73733139
4 53.47411346 31.14153671 60.49921799
4 51.7897377 36.80055618 59.96195602
4 46.57234192 39.08839417 60.02888489
4 55.7383728 -44.94815445 41.86662674
4 59.19093704 -48.51860428 39.36981583
4 60.75991058 -52.32290268 35.50970459
4 46.38605118 -28.98835945 -45.70837402
4 46.0537796 -33.47382355 -47.57203674
4 45.6703186 -36.04803085 -52.03850555
4 55.3644371 40.72554779 -41.17598724
4 56.20893478 45.9344101 -39.1186409
4 56.61545944 50.9344101 -35.90674973
4 59.372509 33.76029205 40.39905167
4 60.72227478 28.96244049 43.47145081
4 60.53055573 24.85657883 46.6419754
4 45.8945961 59.40619278 -35.62206268
4 40.08623886 59.23118591 -37.67719269
4 35.13762283 58.07268524 -38.90057755
4 -47.5613327 51.32759094 -44.1965065
4 -45.09011459 56.36141968 -41.35313797
4 -42.47657394 58.59275055 -37.36012268
4 -53.80846024 41.5440712 43.33234024
4 -52.18640518 36.12725449 44.2555275
4 -48.72154617 30.9344883 45.04481888
4 37.95105743 30.37177849 53.20082474
4 40.55922699 32.96964645 48.80673599
4 43.99207687 36.41638565 45.76745605
4 -46.7658844 48.75410461 -28.58673859
4 -48.95269012 47.28175354 -24.76473427
4 -48.22234344 46.11515427 -18.93193817
4 -40.30447006 -31.09641457 -47.51117706
4 -45.21677399 -30.0179348 -47.89373398
4 -48.1244278 -28.17996788 -43.5633812
4 -48.08555984 -34.14993286 45.60319138
4 -45.31822205 -34.34524536 50.61185837
4 -39.89002228 -33.58649063 50.91504288
4 -54.14742279 34.59872818 21.23552704
4 -54.44824219 35.67860794 26.33168411
4 -54.14511108 39.52105713 29.25302696
4 -42.04839706 33.05158234 -29.33191299
4 -43.63838196 34.49748611 -32.72505951
4 -44.14926147 36.27030563 -38.61529541
4 30.94407082 46.73598099 -51.27922058
4 36.53889847 46.51535416 -49.55913925
4 40.93933105 46.0559082 -46.88154602
4 49.46886063 -44.94233704 -60.7615242
4 43.65554428 -45.34403992 -59.81634903
4 38.98731995 -43.4779892 -59.01984024
4 -39.03749466 -43.27428436 -36.24011612
4 -33.84243774 -40.01099777 -37.86267853
4 -30.87862206 -37.31658554 -40.28022003
4 -50.51818848 -41.44114685 -35.17332077
4 -49.44877625 -43.60412216 -30.27182198
4 -46.6446991 -46.7924118 -26.73450851
4 35.65615082 -33.0977478 -51.75819778
4 32.31600952 -31.39646149 -47.24673843
4 31.28393936 -26.88391495 -44.37561035
4 45.79511642 -56.33420563 27.65290451
4 41.4402504 -53.17069626 25.4916153
4 36.23558044 -50.50799561 25.38967514
4 -45.57857513 -51.50218582 41.52416229
4 -50.19087601 -49.34967041 38.62599945
4 -52.18087387 -44.88220596 36.97767258
