0 32.44807053 41.05719757 55.46760178
2 32.09256744 41.2998848 56.8743248
1 28.20954514 41.8708725 54.41637421
3 28.05634308 42.71517563 55.50075912
1 24.77246475 41.90545654 53.71981812
3 24.8664341 43.37192154 53.87982941
1 21.80648041 42.36839676 52.98946762
3 22.11387634 43.78262329 52.47241974
1 18.74861717 42.75233078 53.14699173
3 18.99385452 43.45362091 51.60017014
1 15.61644077 42.87564468 52.35721588
3 16.0114193 42.69319916 50.82891846
1 12.59963799 43.28404236 51.74438477
3 12.89138985 42.25714874 50.52124786
1 9.464482307 43.41236877 50.78829193
3 9.348649979 41.79410934 50.52350616
1 5.969312668 43.63906479 50.07711792
3 5.61978817 42.34382248 50.55957031
1 2.640346527 43.92962646 49.53144455
3 2.540849686 43.35312653 50.84733582
1 -1.102472067 44.23215103 49.03144836
3 -1.643031478 44.70335007 50.64085007
1 -3.885269403 44.06357574 48.25623322
3 -4.468111992 45.38122559 49.19807816
1 -7.485813618 43.036026 47.60923004
3 -7.886711597 44.4051857 47.72769928
1 -10.19882011 41.71050262 47.28742599
3 -10.84715271 42.74237061 46.53907394
1 -13.38246059 39.66845703 46.77418518
3 -13.43847275 40.0632019 45.35821533
1 -15.9873209 38.38732147 46.03204727
3 -15.47642708 37.89651108 44.63798523
1 -19.55267906 36.73787689 45.4303627
3 -18.93536568 35.84815598 44.55818939
1 -22.2804184 35.4693222 44.7844429
3 -21.69968414 33.91657639 45.0044899
1 -25.89530754 34.2048645 44.21392822
3 -25.66298676 32.91546249 45.21472168
1 -29.43119621 32.91141891 43.46969986
3 -29.59220886 32.61447525 44.91762161
1 -32.64994431 32.43336868 43.22055054
3 -32.87539291 33.03565598 44.51293182
0 -37.42489243 32.01501083 42.4251976
2 -37.82168198 33.26717758 43.10180664
0 28.89625931 -43.39506149 24.86847496
2 29.73375702 -42.17649078 24.75535583
1 25.53932953 -40.38075256 24.65390778
3 25.94435692 -39.65785217 23.39485359
1 23.17689323 -38.22714996 24.75215721
3 22.94780731 -38.40496445 23.24016953
1 20.48166084 -36.88864136 24.69393921
3 20.31150246 -37.62444305 23.63477707
1 17.14522743 -35.9421463 24.80928802
3 16.87765312 -37.35160065 24.45560074
1 13.66694546 -35.73661041 24.81470871
3 13.49516869 -37.19229126 25.40545464
1 10.56180859 -35.88998795 24.97218513
3 10.65373898 -36.91213226 25.84045029
1 7.390667915 -35.71290588 24.7263813
3 7.316408157 -35.94143677 26.14735031
1 4.222659588 -35.77733994 24.79175758
3 4.429464817 -35.04647064 26.07883453
1 1.198415637 -36.19857025 24.93652916
3 1.254431963 -34.64748383 25.69628143
1 -2.416402102 -36.77716446 25.4148674
3 -2.781375408 -35.30879211 25.54546165
1 -5.828940868 -37.65109634 25.68084526
3 -6.512173653 -36.5164566 24.48252106
1 -9.022240639 -38.52357483 26.47736359
3 -9.616856575 -38.35025787 24.86413956
1 -12.85033703 -39.38611984 27.59493446
3 -13.22320652 -39.75496674 26.25432014
1 -15.80618858 -40.49548721 28.90678215
3 -15.95931149 -41.70631027 27.92872238
1 -18.91600227 -41.00022888 30.59805298
3 -18.75457954 -42.63560486 30.21294785
1 -21.96336365 -42.05869675 32.05202484
3 -21.35199356 -43.30787659 32.39820099
1 -24.87860107 -42.69855881 33.7939682
3 -23.86176872 -43.67237473 34.79248428
1 -26.96873856 -43.25797272 35.49442291
3 -25.96769905 -43.12674713 36.89054871
1 -29.50934029 -43.66681671 37.88674164
3 -28.66269493 -42.63100052 39.20473862
1 -31.90032196 -43.9565506 39.63056183
3 -31.68926811 -42.48055267 40.44017029
0 -35.26728439 -44.15797043 42.58122253
2 -35.27329636 -42.79918671 42.1855011
0 35.79435349 -46.65849304 -55.05672073
2 35.31995392 -47.48174667 -56.21175385
1 32.19124603 -47.55667114 -51.85425568
3 32.29851151 -48.83646774 -52.09182358
1 28.66326714 -48.40548706 -49.24159241
3 29.40544128 -49.75218582 -48.82802582
1 25.73014641 -49.17544937 -46.66906738
3 26.70998192 -49.73827744 -45.82178497
1 22.52305222 -49.23770523 -44.35036087
3 23.42407227 -48.92618561 -43.04575348
1 19.36304665 -49.15844345 -42.07380295
3 20.04413033 -47.84339523 -41.16446304
1 16.36637115 -49.03846741 -40.55353928
3 16.39281845 -47.61363983 -40.43712234
1 12.60342407 -49.25082016 -39.31591034
3 12.20379353 -47.98225021 -39.75018692
1 8.724996567 -49.51832581 -37.41300964
3 8.138703346 -49.14741898 -38.82211685
1 5.284160137 -49.36255264 -35.99827576
3 4.608641148 -49.61194992 -37.51627731
1 1.533741832 -48.90235901 -34.69474411
3 1.062307119 -50.43708038 -35.30020905
1 -1.194873691 -49.25323486 -33.53158188
3 -0.99132061 -50.6507988 -33.39614868
1 -4.807616234 -49.20736313 -32.63122177
3 -4.561745167 -50.34200668 -31.69651604
1 -7.750784397 -49.53865814 -32.19771957
3 -7.349617004 -49.61113739 -30.66182899
1 -11.17691708 -49.57386398 -32.1123085
3 -11.09072399 -48.85137177 -30.73480988
1 -14.28275585 -49.47352982 -31.89379311
3 -14.34046078 -48.05893707 -31.08695412
1 -17.68549538 -49.3831749 -30.92972183
3 -17.58091354 -47.84988022 -31.59727859
1 -21.06284142 -49.10908508 -30.03617096
3 -21.35350037 -48.10047913 -31.34909248
1 -25.00983047 -48.88467407 -28.62803459
3 -25.35757446 -49.10045624 -30.15853691
1 -28.01359749 -49.02378082 -27.64335632
3 -28.46488571 -50.20702362 -28.71188736
1 -31.52512932 -49.01054382 -26.41415596
3 -31.77791405 -50.55479813 -26.26341629
0 -36.28299713 -48.54430771 -25.22239113
2 -35.89947891 -49.80093765 -23.97236061
0 54.45354843 -34.09740448 -63.34913635
2 52.8689537 -33.63557816 -63.39035797
1 54.19842148 -29.70035744 -61.33455276
3 53.24979019 -29.9781971 -60.3625412
1 53.98310471 -25.87012291 -60.13385773
3 53.83729553 -26.48168945 -58.9737854
1 53.44791031 -22.29913712 -59.070858
3 53.95729828 -22.62016106 -57.65107727
1 52.5782814 -18.73396111 -57.62175751
3 53.64921188 -18.72371483 -56.88842773
1 51.23670197 -15.15804386 -56.12905502
3 52.56813431 -14.72280598 -55.89313126
1 50.73242569 -12.64106178 -54.98569107
3 51.75475693 -11.92613983 -55.58321381
1 49.60200882 -8.82999897 -53.71792221
3 50.17433548 -8.181745529 -54.73601151
1 49.25596237 -4.995871544 -52.39992523
3 49.25228119 -4.597014427 -53.8302002
1 48.60253525 -1.525139809 -51.26947403
3 47.98701477 -1.217625976 -52.5868721
1 48.35300827 2.122488976 -49.98036575
3 47.1625061 2.082516909 -50.70455933
1 47.53297806 5.492269039 -49.05163193
3 46.12931824 5.126132488 -48.67564392
1 46.98444366 9.135832787 -47.86302567
3 46.18826675 8.419212341 -46.8767662
1 46.7302475 11.98364544 -47.04796982
3 46.50847626 11.67042637 -45.74066544
1 45.89191055 15.25411797 -46.2647934
3 46.82738876 14.97199917 -45.37104797
1 45.68402863 18.38588333 -45.7516861
3 47.15313339 18.86034966 -45.08000565
1 45.24271011 21.56806374 -45.05007172
3 46.41162491 22.10162163 -45.52996826
1 45.02943039 25.03750038 -44.41088486
3 45.96657944 25.33999252 -45.49752045
1 45.23983383 27.96634865 -43.61049271
3 44.90929031 28.03115463 -45.31705093
1 45.15408325 32.49238968 -43.26263046
3 44.05686188 32.83490753 -44.23833847
1 45.35483932 36.11639023 -42.66182327
3 43.86406326 36.27323914 -42.63991165
0 45.23564911 40.5356636 -40.86927795
2 44.20498657 40.30189514 -40.14527893
0 29.01480293 58.53044128 -42.02238846
2 28.58885765 58.21335983 -40.70074081
1 25.65652275 56.47551727 -42.77615738
3 24.88078308 57.31406403 -41.71350861
1 22.38362885 54.58897018 -43.63339615
3 21.29335022 55.95915604 -43.61093903
1 19.84521484 52.8024292 -44.54006577
3 19.24707985 53.98984909 -45.11264038
1 16.6486702 50.86293793 -45.60214996
3 16.74881554 51.83249664 -46.70560455
1 13.75258827 49.5884552 -46.82687759
3 14.38066483 49.86628723 -48.16108322
1 11.26397514 48.22406769 -48.27660751
3 12.20254326 47.56113815 -49.44483948
1 7.848481655 47.27454376 -49.91247177
3 8.454320908 46.207901 -50.65727234
1 4.955852032 46.69165039 -50.90050125
3 5.125201225 45.14812851 -51.17290115
1 1.14855659 46.4994545 -51.70038223
3 1.139407992 45.27671432 -50.77391052
1 -2.166838884 46.53704071 -51.67098618
3 -1.907332659 45.77758789 -49.7819252
1 -5.889522552 46.44850159 -51.27776337
3 -5.884156704 46.91601181 -49.73165894
1 -9.407381058 46.02429581 -50.63560867
3 -9.332161903 47.27695847 -49.99837112
1 -12.48322773 45.98689651 -50.24820709
3 -12.71727562 47.30783463 -50.17725372
1 -16.29854774 45.94929886 -49.44542313
3 -16.54788971 47.11727905 -50.46441269
1 -20.11017227 45.78920364 -48.64983368
3 -20.48571396 46.46614456 -50.14648819
1 -23.61240387 45.44670868 -47.51973724
3 -23.85007477 44.93053436 -49.0537262
1 -27.11287498 45.45261002 -46.68423843
3 -27.5538826 44.12701416 -47.44534302
1 -30.47236061 45.71414948 -44.99635315
3 -30.59945297 44.20468903 -44.73090363
1 -33.83063889 46.80989456 -43.04484177
3 -33.50684357 45.68674469 -41.99161911
1 -36.6768837 47.58552551 -41.01507568
3 -35.89079666 47.30474091 -39.8196907
0 -39.3619194 48.77083588 -38.37872314
2 -37.90622711 49.32550049 -38.06880569
0 -35.9138298 -28.82178497 -39.04011154
2 -37.3691864 -28.19510078 -38.12774277
1 -36.12087631 -24.12214661 -40.03538132
3 -36.02389908 -23.83800888 -38.28073883
1 -36.24200058 -20.78072357 -40.78913498
3 -35.02633286 -20.40177536 -39.56316376
1 -36.83996201 -17.04416466 -40.8287468
3 -35.37521744 -16.64415359 -40.45384598
1 -37.69652939 -13.74868202 -40.7695694
3 -36.3772049 -13.29351521 -41.74367142
1 -38.41904068 -10.46363926 -40.18480682
3 -38.1037674 -10.0268116 -41.6624527
1 -39.40445709 -7.348483562 -39.5691452
3 -40.00774765 -6.750601292 -41.11821747
1 -40.46162033 -4.30134058 -38.37978363
3 -41.49205017 -4.007006645 -39.42434692
1 -41.09570312 -0.9522929192 -37.02421188
3 -42.71191025 -1.585491061 -37.1439209
1 -41.83193207 2.01782155 -35.59833145
3 -42.84429169 1.55975306 -34.66315842
1 -42.49679565 4.968878269 -33.53123856
3 -42.64017487 4.000383377 -32.29784775
1 -43.38164902 8.102209091 -31.43980408
3 -42.55786896 7.800343037 -29.90821457
1 -44.6048584 11.05997562 -29.29691124
3 -43.47856522 10.90582085 -28.38063622
1 -45.85737228 13.46479702 -27.72751236
3 -43.98420334 14.32669544 -27.56634712
1 -47.25242233 15.88565254 -26.30215454
3 -46.32199478 16.69396591 -26.73501587
1 -48.63520432 18.90576744 -24.3195591
3 -48.2444191 19.74549866 -25.52224922
1 -49.59881592 21.917696 -22.54718018
3 -50.11690903 22.45981407 -23.97984314
1 -50.27294159 25.46518326 -20.60968208
3 -51.47832108 25.90907669 -21.48847961
1 -50.12805176 28.11254501 -19.54545593
3 -51.87929153 28.27039909 -19.35403824
1 -50.11538696 30.98305511 -17.99939728
3 -51.45389175 30.56090164 -17.34341431
1 -50.24765778 34.27397537 -16.89591408
3 -50.79089355 33.68088531 -15.56498814
0 -50.17170334 38.89851379 -15.8933382
2 -50.09005737 38.44208145 -13.95222282
0 -41.03408432 56.74549484 -28.2720623
2 -40.11547089 55.33684158 -28.677948
1 -37.93592453 56.70301819 -23.95391273
3 -36.91149521 56.02248383 -24.62504005
1 -36.14580536 56.77142334 -21.06352997
3 -34.84321594 56.91869354 -21.9198761
1 -34.57260132 57.39500427 -17.8124485
3 -33.63337708 58.14490128 -18.48157501
1 -33.41583252 57.8465004 -14.30049515
3 -33.05366135 59.25020599 -14.63478374
1 -32.8992424 58.67388916 -10.49635601
3 -33.32022476 60.1502037 -10.61438847
1 -33.03684998 59.59679794 -6.959391117
3 -34.14628983 60.41842651 -7.496959209
1 -33.02358246 60.4569397 -3.517356634
3 -34.51836014 60.52660751 -3.600119114
1 -33.27767944 60.66567612 -0.701980114
3 -34.51174545 59.66848373 -0.6264250875
1 -33.64588547 60.71397781 2.929555655
3 -34.23887634 59.20386124 2.726029873
1 -34.70899582 60.37095642 6.029931545
3 -33.86029816 58.89344788 6.095959187
1 -35.42004395 59.79466629 9.157482147
3 -34.147789 58.86847305 9.374505997
1 -36.26479721 58.72436905 12.51367855
3 -34.63695526 58.78682709 12.58775902
1 -37.05587006 57.13976669 15.58657455
3 -36.03189087 57.90224075 16.21983337
1 -37.96037674 55.63262177 19.13982964
3 -37.31791306 57.16077423 19.88068962
1 -38.74988556 54.45983124 22.50161743
3 -39.18587875 55.95825958 23.27343941
1 -39.70711136 53.18387222 25.75099754
3 -40.73311996 54.40621567 25.92163467
1 -40.49422836 51.86597061 28.87535858
3 -41.78880692 52.01883698 28.52071953
1 -41.4569664 49.82319641 31.74416161
3 -42.67464066 49.23180389 31.16288948
1 -42.47303772 47.84040451 33.96756744
3 -43.17049026 46.76925659 32.86147308
1 -43.60802841 45.71746063 36.3979187
3 -43.23624039 44.56006622 35.76639557
0 -45.38287735 42.8877449 39.45360565
2 -44.18984985 42.00271988 39.34041214
0 -31.9012928 -32.56081009 47.28628159
2 -31.75217056 -33.65446854 45.89080429
1 -30.12584877 -29.29636955 45.00931931
3 -30.81407547 -29.71521568 43.7783432
1 -29.28038979 -26.66968155 43.36895752
3 -30.5533638 -26.87662315 42.83560944
1 -28.43206787 -23.72475815 41.35180664
3 -29.97921371 -23.48917389 41.39634323
1 -28.33832359 -21.19297409 38.82017136
3 -29.69341278 -20.341856 39.76993179
1 -28.92144203 -19.01200104 36.92207718
3 -28.97859192 -17.95390511 38.33708191
1 -28.99768257 -16.71006012 34.8415184
3 -28.59357071 -15.90524006 35.87656403
1 -30.20791626 -13.86592865 32.7430954
3 -28.62543488 -13.08190346 32.88233185
1 -31.63817215 -11.50292492 30.32080078
3 -30.07719803 -11.01635647 30.09912109
1 -33.04989624 -8.940290451 28.05682945
3 -31.62666893 -8.92577076 26.64865303
1 -34.5013237 -5.956728935 26.41488075
3 -33.59380341 -6.445978642 25.1751976
1 -35.90507889 -2.814197063 25.20431519
3 -36.3374939 -3.529936314 23.84308243
1 -37.15129089 -0.3147078454 24.0814991
3 -38.10712051 -1.249272823 23.21644974
1 -38.31779861 2.083927155 23.25699043
3 -39.57488632 1.007609963 23.17744637
1 -40.27628708 5.253458977 22.65634918
3 -41.57647324 4.434339523 23.14110374
1 -41.65707016 7.68845892 21.99663925
3 -42.59446716 7.534261703 23.11463356
1 -43.02406311 11.19491291 21.73131371
3 -43.2529335 11.31939602 23.28708839
1 -44.47767258 14.01327515 21.57199669
3 -43.43822479 14.43223 22.83503723
1 -45.2076149 17.30480957 21.15921402
3 -43.90752792 17.69020271 21.24440765
1 -46.37020874 20.57025528 20.81652832
3 -44.93505859 20.97885704 20.1813755
1 -47.24385071 24.35905457 20.37645912
3 -46.54394913 24.34670639 18.97099686
0 -48.19872665 28.13168526 19.90665436
2 -48.56978226 27.93997383 18.63565826
0 43.75857544 53.38035583 -32.0933876
2 42.5149231 52.80693054 -32.84060287
1 42.98826218 50.93670654 -27.95337105
3 42.71512985 49.47311783 -28.62127113
1 42.95444489 49.10387421 -24.39775085
3 43.27250671 47.96032715 -24.93698883
1 43.70655441 47.38531876 -20.41344833
3 45.04009247 46.49906921 -21.09697151
1 44.68653107 46.48958588 -17.81209373
3 46.12535858 46.5440979 -18.19623184
1 45.67596054 44.91361237 -14.38595867
3 47.11390305 45.78174591 -14.43221569
1 46.77597809 43.86737061 -11.00823021
3 46.91902542 45.22579193 -10.89347744
1 47.66231918 43.38077164 -7.729175091
3 47.1774025 44.98078537 -7.364574909
1 48.88871002 42.62212372 -5.204484463
3 47.50772476 43.59802246 -4.365206718
1 49.46367264 41.67302704 -2.321922064
3 47.96253967 41.38433838 -1.856897354
1 50.05580902 40.41471863 1.833659649
3 49.0134697 39.45568848 1.805249333
1 50.79956055 39.13601303 4.998624802
3 50.42284012 37.7435379 4.932108879
1 51.66946411 38.46480942 8.708316803
3 52.21128464 37.12641144 8.330972672
1 51.89510727 37.68841171 11.49220467
3 53.11867905 37.01498795 11.19804382
1 52.36010742 36.61698914 14.61988258
3 53.90805435 36.75081253 14.49503708
1 52.73496246 34.95101929 18.25098801
3 53.84848022 35.84735107 18.68453598
1 53.20507431 33.55297089 21.41762733
3 53.45155716 35.0788002 21.75061226
1 53.78789139 32.14665222 25.26168442
3 52.88422775 33.41334152 25.73543167
1 53.98604965 31.31940269 28.60737801
3 52.69121552 32.00617599 28.68509674
1 53.67945099 31.2913208 31.70749283
3 51.97919846 31.1367321 31.50139999
1 53.10607147 31.01636124 35.52126312
3 51.92927551 29.81598473 35.40406036
0 52.74821472 31.03961945 40.00185013
2 52.90328217 29.67196655 39.67787552
0 46.22418213 26.3091507 57.1932106
2 44.84519958 26.12214851 55.99272537
1 46.30196762 22.36851883 56.70058441
3 45.9569397 22.47864914 55.30673981
1 46.0919838 18.90117645 56.07170868
3 46.891819 19.18768311 54.44519806
1 45.91202927 15.37029552 54.98585129
3 47.23874664 15.50868988 54.17589188
1 45.84840775 12.03483009 54.0505867
3 47.43235016 12.03277206 54.29935837
1 45.95108414 8.728555679 53.26597214
3 46.9040947 8.473457336 54.37380981
1 45.75304031 5.595657349 51.9371109
3 45.6911087 5.042390823 53.42974091
1 45.88457108 2.242727518 51.03596497
3 44.75564575 1.890386105 52.21607208
1 45.71606445 -1.587734222 50.36447906
3 44.02213287 -1.511247277 50.66592789
1 45.74395752 -5.655970573 50.11820221
3 44.6661911 -5.329060555 49.20607758
1 45.8081131 -8.707732201 49.32300949
3 45.07881546 -8.374159813 48.05173874
1 45.229702 -12.06272507 48.15475464
3 45.19416809 -11.59113503 46.90745926
1 44.84993744 -15.10017014 47.36182404
3 45.89345932 -14.80954456 46.38393402
1 44.79289627 -18.50450706 47.03238678
3 46.19650269 -18.45815659 46.41209793
1 44.94513702 -21.6078968 46.06560516
3 46.36038589 -21.70999908 46.55020523
1 44.85608292 -24.01994324 45.55904007
3 46.05657196 -24.30122757 46.43409348
1 44.79621506 -27.29300499 44.40648651
3 45.23091507 -27.68582344 45.81668854
1 44.858181 -30.79883003 42.79987717
3 44.22739792 -31.26411819 44.25285339
1 44.96852112 -34.2625885 41.19313049
3 43.58952713 -34.73202515 42.29088593
1 45.3935051 -37.3912735 40.35982895
3 43.87099457 -37.73339462 40.48490906
1 45.88926315 -41.01345062 39.21473694
3 44.56350708 -41.0116539 38.57825089
0 46.08893204 -45.77109528 38.09664536
2 45.87585831 -45.57978058 36.76251221
0 49.7830658 -51.07721329 26.44267654
2 49.79680634 -49.42351151 26.87503815
1 51.51363754 -49.71272278 22.30742836
3 52.63963318 -48.90732193 22.92552567
1 52.8442421 -48.80364609 18.86075783
3 54.32969284 -48.44079971 19.39105034
1 53.88976288 -47.9138031 16.03417969
3 55.33651733 -48.51185226 16.19730949
1 55.17503738 -47.06478882 12.86557293
3 56.01399612 -48.22798538 13.00122166
1 56.37876892 -46.38484192 9.797308922
3 56.27380371 -47.85203552 9.747917175
1 56.77344131 -45.73181534 7.096362114
3 56.33275986 -46.90150833 6.579792976
1 57.42110825 -44.47847366 3.267585754
3 56.35720444 -45.11103058 2.890344858
1 57.55294418 -43.30657959 0.4729897976
3 56.29465103 -43.32475281 0.4281052053
1 57.21181488 -41.68150711 -2.805762529
3 55.74319077 -41.25278091 -2.419358969
1 56.86551285 -40.41926575 -6.385806084
3 56.0648613 -39.093853 -5.810072899
1 56.77340698 -39.42649078 -8.884661674
3 56.59611893 -38.10467148 -8.319482803
1 55.85212708 -37.97523499 -11.98881817
3 56.6875267 -36.83616257 -12.07900238
1 54.73635101 -37.07128143 -15.0857048
3 56.0206337 -36.20574188 -15.79099083
1 53.24049759 -35.93728256 -18.25228119
3 54.41438293 -36.16753387 -18.73590851
1 51.70684433 -35.04281616 -20.75604057
3 52.60982132 -36.08398056 -21.42480469
1 50.15726471 -34.04793167 -24.00292206
3 50.47203445 -35.48794556 -24.41529083
1 48.72650146 -33.10501862 -27.28163147
3 48.26548004 -34.38327408 -27.55607986
1 47.24166107 -32.3070755 -29.90781593
3 46.14055634 -33.19467545 -29.542799
1 45.7218132 -31.71175003 -32.88514328
3 44.21497345 -31.93226814 -32.21595001
1 44.74584198 -31.43160057 -35.89105988
3 43.68297577 -30.78020477 -35.27603531
0 42.55384064 -29.90868759 -40.11800385
2 42.24258041 -28.32287788 -39.43760681
0 -48.12992477 -31.34406281 -36.39305115
2 -47.24013138 -30.14808655 -36.41878128
1 -48.96996307 -30.67229843 -31.92514992
3 -49.10464859 -29.21754837 -31.77204704
1 -49.873806 -30.1800518 -28.35894585
3 -50.61692429 -28.77871895 -28.90882874
1 -50.97415924 -29.49165535 -25.26699638
3 -52.1613121 -28.81619263 -25.71063995
1 -51.91778946 -28.31188202 -21.12138557
3 -53.27758789 -28.48563004 -21.4410553
1 -53.24594116 -27.63844109 -17.33797073
3 -54.57175446 -28.73664284 -17.51502609
1 -54.02466965 -27.22652054 -13.76210976
3 -54.43546677 -28.64917755 -13.75863743
1 -54.99547577 -26.95586777 -10.19170952
3 -54.58229065 -28.24534988 -9.979109764
1 -55.6992836 -26.61765671 -6.456677437
3 -54.42203522 -27.3237381 -6.073312759
1 -56.12595749 -26.35659981 -3.10770607
3 -54.52730942 -26.48213768 -2.698520422
1 -56.30820084 -26.33154297 0.9031006694
3 -54.71231842 -25.55557823 1.045478106
1 -56.28708649 -26.05303574 4.408527374
3 -55.36660004 -25.01296616 4.049514771
1 -55.99800873 -26.2702446 7.79929924
3 -55.74874115 -24.79966545 8.12940979
1 -55.38603592 -26.62400627 11.23125267
3 -56.01730728 -25.28793716 11.39940739
1 -54.93405151 -26.8047924 14.70321751
3 -56.14352798 -25.88844681 14.90750885
1 -54.57610321 -27.87031174 18.5135231
3 -55.94172287 -27.68610573 19.03994942
1 -53.94007492 -28.57792664 21.47518921
3 -55.09402084 -29.24976158 21.75724411
1 -52.73416138 -29.76104736 25.05418015
3 -53.94109344 -30.68432236 25.03288841
1 -51.52365494 -30.67967033 28.54103279
3 -51.88249969 -32.06409073 28.21177864
1 -50.8996048 -31.37691116 31.40000916
3 -50.33120728 -32.83556747 30.84284019
1 -50.30522537 -32.68792343 34.72999573
3 -49.14684296 -33.35971832 34.18393707
0 -49.45798111 -35.29988098 38.21658325
2 -47.92981339 -34.93043137 37.97660828
4 -37.81282043 33.94879532 32.34720612
4 -40.37398529 35.15376282 27.04655647
4 -42.06073761 36.01208878 21.75642967
4 -29.43447495 -36.93960953 55.73812485
4 -29.32840538 -41.77038956 54.03453064
4 -32.28334427 -45.26390076 52.07145309
4 30.15183258 -47.98786163 34.09523773
4 33.22175217 -49.43196869 38.43339157
4 38.12946701 -51.62638855 40.75006485
4 44.03551102 34.1950798 62.25772858
4 43.70338058 38.69107056 58.93318939
4 40.85439301 42.32366562 56.34156036
4 54.299263 -51.3805275 40.80466461
4 55.40663147 -55.05065155 35.91315079
4 56.51090622 -56.45374298 30.62584305
4 51.44746399 -31.95893478 -45.1014061
4 53.89461136 -35.50817108 -49.00596237
4 57.02257538 -36.07369995 -53.35190964
4 53.8767128 42.09724426 -35.00843811
4 54.85957718 47.23633957 -34.27035522
4 51.59383011 50.74898148 -34.9720192
4 60.25099564 33.80960464 46.43837357
4 60.42650223 30.0190773 49.77651596
4 55.09601212 28.50020409 52.68040085
4 43.70639801 63.61985397 -33.08581924
4 40.78229523 63.27762985 -38.18911743
4 35.59825516 65.68376923 -40.72055435
4 -47.25499725 53.11087799 -43.39356995
4 -46.22833252 57.61483383 -41.22943878
4 -45.10817719 58.32840347 -36.59119415
4 -48.78801346 38.00286484 48.02848053
4 -48.2009697 33.54308319 46.17337036
4 -46.09034348 28.45158768 43.82282639
4 36.38398743 32.32915115 52.52919769
4 40.26873016 32.13895798 47.51514435
4 44.51631546 32.34429932 46.35233688
4 -49.53865814 53.71146011 -23.73802567
4 -51.98627853 51.01121521 -19.82063293
4 -53.58358765 47.67552948 -15.63070393
4 -38.09499359 -33.43115234 -48.14493561
4 -42.86796951 -34.11998367 -47.49061584
4 -48.56566238 -32.42266464 -46.38724136
4 -51.05146408 -33.15678024 47.76282883
4 -46.32523727 -31.8144455 49.54317856
4 -40.70064163 -30.49258614 49.29486465
4 -53.48622894 32.87904358 27.03999519
4 -53.12303162 35.34917831 30.82266235
4 -53.78137207 39.09136581 35.39438248
4 -41.77318573 39.79286957 -22.03542328
4 -42.73806 40.00788498 -27.04236984
4 -43.48668289 41.24930954 -32.65696335
4 35.66568375 55.60744476 -47.91571045
4 41.07551575 53.53759766 -46.52552414
4 44.06973267 49.39681625 -45.92007828
4 54.87355423 -44.05726242 -64.07164001
4 49.88573456 -44.82783127 -60.43071747
4 45.30916595 -46.41124725 -57.81481934
4 -36.69175339 -38.30893707 -25.96075058
4 -35.43471909 -38.38528442 -30.86739159
4 -32.98545837 -36.32292175 -35.03316879
4 -46.73526001 -41.02822876 -37.03059769
4 -44.48894119 -46.04335785 -34.90236282
4 -44.08613205 -50.41928482 -31.5439415
4 37.46244049 -36.5308876 -56.21236801
4 35.05128098 -35.72978973 -52.04646683
4 36.08863068 -31.8691082 -46.49573517
4 40.54638672 -53.47182465 27.58935928
4 37.72221756 -50.5309639 23.10011673
4 36.94754028 -47.2085495 19.60695648
4 -43.64919281 -48.7817688 43.71598816
4 -49.2125473 -49.39351654 42.0198555
4 -51.02984238 -44.139534 39.39271545
