0 31.29006195 40.92779922 60.75262451
1 19.3015461 36.71863937 52.73814774
1 6.518710136 34.36733246 50.07549286
1 -7.119659424 33.40884399 46.85362625
1 -20.3472805 35.24564362 46.33671951
0 -34.79649353 39.81234741 44.25653839
0 29.60396576 -40.66112137 20.62909698
1 15.50265312 -37.80515671 23.50926971
1 2.769721508 -38.68834305 29.40311241
1 -11.2379694 -41.0533638 32.15433502
1 -23.34785652 -47.55031967 31.68857193
0 -37.97107315 -49.22919083 32.51639175
0 27.48426247 -37.59558868 -51.04964447
1 15.31064796 -42.52060318 -46.20502472
1 3.214880943 -44.43906021 -39.47834396
1 -10.63025856 -46.28904343 -31.87604713
1 -23.15125847 -49.29105377 -26.90324593
0 -34.80278397 -50.84414291 -21.53621674
0 50.21217346 -29.7870636 -62.17969894
1 46.30596542 -16.84215736 -58.16395569
1 45.58791351 -5.365446091 -50.93070221
1 44.23329926 9.191013336 -48.90679932
1 44.42874908 23.06985092 -49.63205719
0 42.79111862 35.63661957 -49.22935104
0 27.82109642 49.11284256 -41.39957809
1 14.18116283 47.01246262 -43.15037537
1 0.6226246357 44.60985565 -47.63309479
1 -12.95368958 42.35358047 -48.79171371
1 -26.86622047 39.2332077 -48.85510635
0 -40.3409996 33.92711258 -47.24242783
0 -35.55827713 -27.48895836 -48.57090759
1 -37.31391144 -14.07524109 -43.08676147
1 -41.04336929 -2.760322332 -36.78611755
1 -47.50085831 9.108771324 -30.12433052
1 -52.04798126 20.38250923 -22.60789871
0 -53.7029686 33.78427505 -17.61661911
0 -38.46022415 57.99405289 -32.46303177
1 -34.67725754 54.90820312 -17.99690628
1 -34.57471466 54.83130646 -2.589363575
1 -36.07557297 55.65656662 12.02065945
1 -42.46826172 54.1905899 25.26073074
0 -49.63978958 50.21543121 38.72189331
0 -32.24201965 -33.14929199 50.09635925
1 -34.25534821 -20.98893356 42.08251572
1 -36.24890137 -10.3334446 32.01127243
1 -36.94671631 2.454776287 25.81243706
1 -40.24310684 13.63869381 17.85282516
0 -43.95561981 28.30248642 13.89493561
0 43.00400925 46.45383072 -30.81460953
1 43.91147995 46.31520081 -15.38692856
1 46.15558243 45.81707764 -1.603421092
1 45.29788208 41.75813293 12.84024525
1 45.41033936 36.08704758 25.25977325
0 41.13305283 29.16478729 36.45576096
0 52.8988533 29.37962914 54.46780396
1 48.09300995 16.63220215 50.94187927
1 43.90272903 3.935619354 47.68164444
1 43.31731415 -9.89303112 44.28671265
1 42.9397316 -24.06468773 43.18463898
0 46.20809174 -37.26810837 39.29748535
0 55.1322403 -61.58385849 20.3198452
1 55.73754883 -51.29657745 10.00020885
1 56.5654068 -43.42337036 -0.7931028008
1 52.4846077 -35.66170883 -12.2315712
1 44.06454086 -31.05574799 -22.17231369
0 34.7719574 -30.53557205 -32.94989395
0 -54.39647675 -29.61343193 -35.00826263
1 -56.94245911 -29.87524033 -20.66897583
1 -53.76662827 -29.70983505 -6.615699291
1 -53.98606491 -31.12233353 8.140554428
1 -53.12631989 -31.20910263 21.35560036
0 -52.40364456 -34.02607727 35.2770195
2 -47.25702667 30.29370499 31.49305344
2 -36.14229965 -49.75672531 42.83171844
2 31.5177536 -45.42818832 32.80807495
2 37.82822418 40.30392838 44.78720856
2 59.36983871 -48.53826141 31.59609032
2 49.89702225 -26.13605881 -45.23358917
2 45.45850754 33.14576721 -39.83244705
2 55.80504608 34.84516525 44.52369308
2 38.43130493 55.13986588 -25.44201469
2 -45.85012436 51.23616791 -47.44376373
2 -41.06566238 52.93574905 45.13493729
2 31.03608704 23.14668846 50.98580551
2 -38.86611557 42.75281906 -22.16005516
2 -43.16667557 -24.47048187 -50.22240067
2 -46.69106293 -25.95251465 46.5858345
2 -37.13257599 42.72516632 24.97937202
2 -42.43535614 26.19722176 -32.09217834
2 26.19951439 32.56202316 -49.32676315
2 41.16023254 -46.23433304 -53.83889771
2 -37.50180817 -42.19146347 -37.70099258
2 -43.35977173 -36.8164978 -20.18340874
2 33.9465065 -42.74104309 -44.53216171
2 39.02709579 -54.92540741 19.1609478
2 -53.8173027 -46.68302917 45.33034515
