0 -51.40481949 -28.67255592 -20.88668442
4 -50.0030098 -27.90641212 -20.88913536
0 -53.11256027 -25.35707092 -22.58343315
5 -51.64693832 -24.81925392 -23.14878464
0 -54.2603035 -22.26407623 -23.41041183
5 -53.57617188 -22.43860054 -24.841259
0 -55.30834961 -19.70062828 -24.11946487
5 -55.53830719 -19.85994911 -25.72586632
0 -56.52481842 -16.84880638 -24.6142807
5 -57.45678329 -17.48865509 -25.72902298
0 -57.0251503 -14.595541 -25.17951584
5 -58.55290604 -14.96708202 -25.20261192
0 -57.92972565 -11.32726955 -25.74520683
5 -59.43943405 -11.2799139 -25.00649643
0 -58.43120956 -7.753095627 -26.1359024
5 -59.10261917 -7.900575638 -24.72562408
0 -59.2666893 -4.117078304 -26.53376389
5 -58.96906662 -3.971924543 -24.96738434
0 -60.14373779 -0.8142921329 -26.54317284
5 -58.91951752 -0.3171300292 -25.42657089
0 -60.53725052 2.651651144 -27.0538578
5 -59.04364777 2.82160449 -26.86783981
0 -60.51191711 5.74972868 -27.20741653
5 -58.99464035 5.436758995 -27.89539719
0 -60.3463974 9.353607178 -27.28568649
5 -59.33015823 9.165342331 -28.71175194
0 -59.81080627 12.95733356 -26.730093
5 -59.82080841 13.38385677 -28.11161041
0 -59.05427933 16.53208923 -26.07172966
5 -60.17758942 16.70322418 -27.20276833
0 -58.45267487 19.86636353 -25.35618973
5 -59.72444153 20.42211533 -25.6454258
0 -57.78023148 22.8700943 -24.73797989
5 -59.13121796 22.99236488 -24.15048218
0 -56.45409012 26.11430931 -23.63346672
5 -57.55954361 26.06577682 -22.31309509
0 -55.08718491 29.27897263 -23.35964394
5 -55.17542648 29.00938988 -22.04455757
0 -53.43147278 32.06558609 -22.98897934
5 -52.58992767 31.17874527 -21.88942719
0 -51.4079628 34.46534348 -22.23546982
5 -50.38111877 33.1870842 -21.77138329
0 -49.04753113 36.74401474 -21.40151596
4 -47.58564758 36.16420364 -22.18380928
0 -1.821594954 5.477807522 52.26928329
4 -1.071021676 5.296690464 50.93015289
0 -4.876544476 7.268193722 50.95111847
5 -4.517712116 6.346410275 49.80789185
0 -7.431292057 9.28413868 49.5564537
5 -7.786581039 7.752854824 49.17292023
0 -10.16557884 10.90503025 48.23429489
5 -11.18831158 9.565364838 48.51898193
0 -12.40044022 12.42744255 46.28827667
5 -13.62052822 11.98894787 47.30485916
0 -14.81814861 14.3797884 43.74967957
5 -15.89831543 14.8224659 44.92020035
0 -16.95675087 16.00451279 41.00588608
5 -17.276968 17.11719513 42.201931
0 -18.51584244 18.02447319 38.45689392
5 -18.16990852 19.52321243 39.42289734
0 -20.04164314 19.77884674 36.25434875
5 -19.0781002 20.73683929 36.50938034
0 -21.52291107 21.89816856 34.00750351
5 -20.13816261 22.65937042 33.51499557
0 -22.86375618 23.92552376 31.98505974
5 -21.90453148 23.57631493 31.3203907
0 -24.5965004 26.22967911 29.56077576
5 -24.2605896 25.38792038 28.48779678
0 -26.31925583 28.33632469 27.63366699
5 -26.63082314 27.20254517 26.60931396
0 -27.75259209 30.74995232 25.01799583
5 -28.57036209 29.67341805 24.50841331
0 -29.0729351 32.34201431 22.02995872
5 -30.35684967 31.79866028 21.68323326
0 -29.92518234 33.61294556 19.09654808
5 -31.52169991 33.67617798 19.55615807
0 -30.83396149 34.55241013 16.32769775
5 -31.91418076 35.4284668 16.99691582
0 -31.98468399 35.95813751 12.97978497
5 -32.16963959 37.41746521 13.95131874
0 -32.67842484 37.22948456 10.00652885
5 -32.00931549 38.44840622 10.34079552
0 -33.71024704 38.29323959 7.140555382
5 -32.3576622 39.07855988 6.995515347
0 -34.74980164 39.64123154 3.543035746
5 -33.0708847 39.95497894 3.331804276
0 -35.61756134 40.95385742 0.1913352162
4 -34.61332703 40.33491135 -0.2860811055
1 30.70307541 4.082465172 -24.6184063
4 29.91838074 2.913729668 -24.05142593
0 27.04691315 6.870109081 -24.90411758
5 26.51812744 6.450573921 -23.54020309
0 24.29373169 8.803003311 -25.48903465
5 24.31276321 9.043997765 -24.23047447
0 21.92968369 11.27405643 -26.2129612
5 22.52324104 12.26307964 -25.19407463
0 18.83373451 14.51779556 -26.93408966
5 19.92586136 15.35485649 -26.61541939
0 16.14047241 17.20409775 -27.55478287
5 17.09469795 18.23506737 -28.06379509
0 13.17458916 19.71482277 -28.19847679
5 13.81993866 19.98881912 -29.5730896
0 9.770605087 21.65439606 -28.70989418
5 9.783234596 21.57087135 -30.18572235
0 6.359809399 23.87069893 -28.85259056
5 5.900301933 22.83811569 -30.04910278
0 2.683703899 26.05142403 -28.39997673
5 1.865357637 24.83538437 -29.03024864
0 -0.4949522316 27.70049858 -27.92495346
5 -0.9340480566 26.04175758 -27.59588432
0 -4.318828106 28.89314461 -27.34434128
5 -4.961951256 27.73816299 -26.18873978
0 -7.969029427 30.36010742 -26.78218842
5 -7.989072323 29.86002541 -25.34813309
0 -11.25301456 31.55509758 -25.99732208
5 -11.01445389 31.56742287 -24.66282272
0 -14.10418129 33.1921463 -25.70674515
5 -13.46938229 34.03149033 -24.3750515
0 -17.28999329 35.47705078 -25.10751915
5 -16.31023407 36.63222504 -24.76585007
0 -20.06848145 37.1047821 -23.97982979
5 -19.3983593 38.46293259 -24.47698021
0 -23.11121368 39.01737976 -22.51464462
5 -23.22533989 40.00933838 -23.83307648
0 -26.15574455 40.31613541 -21.07593536
5 -26.81956482 40.78683853 -22.60030556
0 -29.61091423 41.04911423 -19.96590042
5 -30.35531044 40.40910339 -21.42803574
0 -32.76992416 41.54090118 -18.17255783
5 -33.29194641 40.37341309 -18.99306297
1 -36.38048935 41.25699615 -16.60502815
4 -36.61053085 39.6610527 -16.45445824
0 37.28051758 2.681115389 -14.0387392
4 35.66518021 3.118003368 -14.043396
0 37.42304611 2.063887119 -10.62663078
5 35.95724869 1.382987142 -10.73446846
0 37.32805252 0.6623419523 -7.235039234
5 36.81653595 -0.5806462169 -7.440514088
0 37.24878693 -0.7356778979 -4.022838116
5 37.25779724 -1.9968431 -4.688192368
0 37.37966919 -2.079790831 -0.4981582165
5 38.35370255 -2.960742712 -0.7138000131
0 37.80198669 -3.060161114 3.235750914
5 39.36434937 -3.465435028 2.983985662
0 37.78699875 -3.866867542 6.949041367
5 39.0505867 -3.397155046 7.114973545
0 37.17900467 -5.487184525 10.40495872
5 38.17193985 -4.290475845 10.82640171
0 36.7165947 -6.743577957 13.6563797
5 36.96971893 -5.380833149 14.25415421
0 36.10776901 -8.496339798 17.07528496
5 35.48948669 -7.09269762 17.26494217
0 35.53097153 -9.317142487 20.15049362
5 34.06464767 -8.764817238 19.77524948
0 34.34169769 -9.817253113 24.15121269
5 32.9864502 -9.650702477 23.51942062
0 33.06799316 -9.919900894 27.07781601
5 32.03587341 -10.97006512 26.20606232
0 31.6477375 -10.02965069 29.78075981
5 31.10232162 -11.58537674 29.71722031
0 29.82493401 -10.02184963 32.73698807
5 29.99312782 -11.42470074 33.05082321
0 27.58829308 -9.68731308 35.55829239
5 28.6808033 -10.61053371 36.29236221
0 25.43802452 -9.493699074 38.01490402
5 26.53043938 -9.628425598 39.03707886
0 23.10016823 -9.754853249 40.52029419
5 23.95978546 -9.006399155 41.60897446
0 20.29730988 -9.607424736 43.19931793
5 20.80515289 -8.489066124 43.75081253
0 17.91686821 -9.581644058 45.78190231
5 17.93915749 -7.859750271 45.88796234
0 15.28263092 -9.53728199 48.17276001
5 14.78264904 -7.943598747 47.46681976
0 11.84151363 -9.356272697 50.66386795
4 10.97505951 -8.502871513 49.38569641
1 -40.57957458 -33.50968933 -12.09845257
4 -39.47635269 -32.61422348 -13.04623413
0 -38.96929932 -30.97758102 -8.946743011
5 -38.86941528 -29.55884743 -9.70744133
0 -37.64347076 -29.39015579 -6.419023514
5 -38.54039764 -27.73011589 -7.070194244
0 -35.23093033 -27.40296745 -3.576209307
5 -36.48180008 -26.14704895 -3.39402318
0 -33.48812485 -25.64667702 -1.450789332
5 -34.37616348 -25.57696533 -0.7370277047
0 -31.24047852 -24.08107185 0.851954639
5 -32.37095261 -24.39130592 2.024370909
0 -28.64914894 -21.96378708 3.837937593
5 -28.99553299 -22.98409271 5.020659447
0 -26.48447037 -20.1550827 6.164016724
5 -26.1357975 -21.62151718 6.744441032
0 -24.77503204 -18.89679718 8.910020828
5 -23.68381882 -20.09869576 8.777429581
0 -22.97271919 -17.8673172 11.7276926
5 -21.4399662 -18.12878418 11.09507751
0 -21.03425789 -16.94529533 14.65082359
5 -20.14930725 -16.25345612 13.88898468
0 -19.39917183 -15.9773941 17.77930641
5 -18.61625099 -14.53945446 17.27493668
0 -17.57316017 -15.08585262 21.38272095
5 -17.62930107 -13.80193138 21.10010719
0 -16.17151833 -14.67238903 24.07540131
5 -16.8997097 -13.42448425 24.43144989
0 -14.24076366 -14.43188572 27.50439072
5 -15.40228081 -13.47250748 28.22082138
0 -12.24311066 -13.95306206 30.57493401
5 -13.37983131 -13.88309574 31.45907211
0 -10.18781948 -14.06694221 33.59385681
5 -11.2498188 -14.81598091 34.30838013
0 -8.914985657 -13.82164955 36.3012085
5 -9.315476418 -15.1686573 37.13776016
0 -6.855792046 -12.68486118 39.66178894
5 -6.647297859 -14.17190361 40.05756378
0 -5.154808044 -11.96382427 42.18786621
5 -4.066925049 -13.20157814 41.62211609
0 -2.930653095 -10.99055386 45.16724396
5 -1.776438117 -11.50725365 44.07910156
1 -0.1200834587 -9.567709923 47.99813843
4 0.9461529851 -9.002653122 47.04594803
0 -33.34073639 -36.85066986 -25.08248329
4 -33.61296844 -35.39585114 -24.97744751
0 -30.28653908 -36.15485764 -26.80688667
5 -30.33433533 -34.98640442 -25.72738838
0 -27.10647202 -35.0324173 -28.09467125
5 -26.65843964 -34.68027496 -26.78696823
0 -24.27954865 -33.86188126 -29.60378265
5 -23.45714569 -34.24118042 -28.36654663
0 -21.58818245 -32.42375183 -30.68123436
5 -20.84206009 -33.49072266 -29.71437645
0 -18.23303413 -31.00042725 -31.60603905
5 -17.81072044 -32.48199081 -31.52109909
0 -15.2650032 -30.06831169 -32.26502609
5 -14.73296833 -31.44958878 -33.12332916
0 -11.80872345 -28.77802277 -32.40353012
5 -11.61778641 -29.11489296 -33.79888153
0 -9.159485817 -27.42142296 -33.18809128
5 -9.799110413 -27.50164986 -34.51186371
0 -5.55563736 -26.12938309 -34.67021561
5 -6.264765739 -25.22917175 -35.42463684
0 -2.701790094 -25.10572243 -35.78333664
5 -3.22283864 -23.62336922 -35.96822357
0 0.1462408006 -24.10215187 -36.99866104
5 0.1377163827 -22.69399261 -35.95980835
0 3.118115902 -23.11346436 -38.00517273
5 3.384754181 -22.55699348 -36.34645462
0 6.417829514 -21.38062859 -38.46086502
5 6.957558632 -21.89772606 -36.90036774
0 8.508299828 -20.25329018 -38.54026413
5 9.323911667 -21.2798214 -37.88148117
0 11.44985962 -18.59019279 -38.53414917
5 12.0444994 -19.69123268 -38.76799011
0 14.43095684 -16.99895477 -38.01819611
5 15.00014687 -17.80628204 -39.20426941
0 17.00933266 -15.50314522 -37.13265991
5 17.44462013 -15.19846916 -38.75200653
0 19.47611427 -13.33582497 -36.54185104
5 19.14959717 -12.74273014 -37.84409332
0 22.44985199 -10.44987679 -35.83063126
5 21.5159874 -9.224777222 -36.63273621
0 25.17552948 -7.923069 -34.65743256
5 23.9997673 -6.697547913 -34.51078796
0 27.8789978 -5.560590267 -33.79695892
4 26.98586845 -4.590492725 -32.80180359
6 -44.75430298 44.23666 -20.88289452
6 34.73002625 -0.08504819125 -33.26865768
6 -50.67466354 -34.47359848 -14.9609251
6 -1.917891502 -2.961417437 55.3189621
6 5.238110065 -12.96970654 55.79771423
6 -35.83377075 -40.51792526 -17.73762131
6 39.61003494 7.188579559 -20.56663513
6 -37.65684509 45.42873001 -7.065620899
2 -49.03870392 -44.26131821 -30.7919178
4 -48.9441452 -43.75456619 -32.09259415
0 -50.78776169 -46.85163116 -31.3836937
5 -50.33375168 -46.81219101 -33.02742004
0 -52.60114288 -49.37566757 -32.28475571
5 -51.39076996 -49.7399292 -33.16654587
0 -54.3279953 -52.31584549 -33.14219666
5 -52.81391525 -52.83979797 -32.96142197
0 -55.68815613 -54.72034836 -33.23025894
5 -54.71746445 -55.36247253 -32.40888977
0 -57.60735703 -57.84791565 -33.42828369
5 -57.20808029 -58.37830734 -32.1505394
0 -59.34573364 -60.4622345 -33.89788818
5 -59.66218567 -60.40765381 -32.41144562
0 -61.68165207 -63.76170731 -34.84538651
5 -62.86301804 -63.56928635 -33.58309555
0 -63.71890259 -66.64664459 -35.38938904
5 -64.79907227 -65.87982941 -34.76436615
0 -65.70132446 -69.75037384 -36.25338745
5 -67.09870911 -68.95290375 -36.58478546
3 -67.84927368 -73.06842041 -37.07130051
4 -68.16208649 -72.1991806 -38.56696701
2 -52.02264023 32.98619461 -4.3821311
4 -53.41301346 33.64819717 -3.857249022
0 -51.97084808 35.07658005 -5.802093029
5 -52.88693619 36.05465698 -4.78002882
0 -51.82731628 37.71831131 -7.447747231
5 -51.71986389 38.52508163 -5.959739685
0 -51.97342682 40.46613312 -8.688477516
5 -51.35110474 41.15558243 -7.483592987
0 -52.51141739 43.86400223 -10.11816025
5 -50.99623108 44.38685608 -9.583442688
0 -52.95525742 47.07936478 -11.33528328
5 -51.35538483 46.86750031 -11.57978439
0 -52.9908905 51.21169281 -12.54996014
5 -52.20357132 50.80429459 -13.74011326
0 -52.65735626 54.18344498 -13.85321331
5 -52.87985992 53.55342484 -14.94996166
0 -52.04284668 57.04772949 -15.61970329
5 -53.1746521 56.76334381 -16.50995255
0 -51.36323929 60.53765869 -17.25414848
5 -53.02235794 60.99876404 -17.67198753
3 -49.80276871 63.63659668 -18.40253639
4 -51.02209854 64.63483429 -17.94654465
2 42.50256348 -11.40460968 -25.5596447
4 41.96736526 -12.97975922 -25.00038338
0 45.55768204 -12.65621758 -25.24057388
5 44.89575195 -14.30792713 -25.34872246
0 48.96326447 -13.38678074 -24.73979568
5 48.78721619 -14.74434566 -25.59702492
0 52.52636337 -14.510005 -23.62623596
5 52.68712234 -15.08100319 -24.90341759
0 55.79720688 -15.43419743 -22.74740601
5 56.05511475 -15.1778326 -24.01122284
0 58.95549393 -16.65336227 -21.8204155
5 59.68746185 -15.41394901 -22.4908371
0 61.83888245 -17.80171776 -21.11874771
5 62.52775955 -16.29591751 -21.34663773
0 64.80474854 -19.37000656 -19.97389984
5 65.49196625 -18.19963264 -19.45562363
0 67.3952179 -20.87074661 -19.05339241
5 67.56154633 -19.64710617 -17.87708282
0 69.82914734 -22.95342636 -17.97284126
5 69.44972229 -22.41095734 -16.38487053
3 72.81580353 -24.85251808 -16.51109123
4 72.0366745 -25.5884285 -15.34877205
2 8.853768349 -0.684435904 65.9927597
4 10.17918587 0.1142811626 66.08591461
0 8.216590881 -0.1870426834 68.84274292
5 9.547886848 1.059315681 68.91142273
0 7.735242844 0.4878520966 72.58011627
5 7.895231247 2.092595577 72.1818161
0 7.087632656 1.278888464 75.89949036
5 6.267253876 2.379765987 75.53662109
0 6.180454731 2.341989279 79.80649567
5 4.816003799 2.601248503 79.36480713
0 5.778164864 3.38845253 83.58037567
5 4.321806908 3.067393064 83.57797241
0 5.570839882 4.693561077 86.4449234
5 4.368441582 3.743011713 87.0320282
0 5.263230801 6.433977127 89.06828308
5 4.910439014 4.953015327 89.717453
0 4.920042992 7.804166794 91.63586426
5 5.406289577 6.474124908 92.33905029
0 4.381723404 9.143837929 94.3583374
5 5.642857552 8.22572422 94.95220184
3 4.471409798 10.50589752 97.41596985
4 6.067752361 10.41207504 97.56816864
7 -83.27109528 -50.67457962 -51.54483032
8 -80.60118866 -52.67780685 -48.69850922
8 -80.92997742 -54.58401489 -44.16553879
8 -81.60668182 -60.68879318 -42.35644913
8 -84.45240784 -64.17658997 -40.72801208
8 -86.60785675 -69.40202332 -43.95078659
8 -84.93386078 -75.51320648 -45.39840698
8 -83.46852875 -77.91461945 -39.43191528
8 -78.83613586 -79.27784729 -35.37466049
8 -74.09336853 -75.93058777 -32.47833252
7 -86.61034393 60.30579758 -19.82634735
8 -86.21444702 62.72669983 -22.89893341
8 -85.88868713 67.03408813 -25.89894104
8 -80.36344147 69.060112 -26.9985981
8 -74.26834106 68.46263123 -25.40826416
8 -68.69594574 67.24131775 -27.85050964
8 -63.03474808 70.14794922 -29.54142761
8 -57.7375679 66.70095825 -28.86774445
8 -52.8131752 69.32264709 -27.28559113
8 -48.45914841 65.13475037 -26.36634636
7 107.893898 -22.94356346 8.758810043
8 107.4458847 -25.61450768 11.16726685
8 103.6359253 -23.39510536 7.417891502
8 101.0867844 -21.35095978 2.928074598
8 99.18659973 -23.2588253 0.8471945524
8 93.49330902 -23.68218803 -2.018190622
8 89.35567474 -22.48528481 -5.452245712
8 84.3212738 -24.10422134 -4.683713913
8 82.31624603 -19.25353622 -8.176732063
8 80.25624084 -20.70244408 -13.49208069
7 -2.070113182 18.03450012 133.5852203
8 0.4095733762 17.88566017 132.3359222
8 3.297420502 12.1714983 130.8364105
8 8.03155899 13.27741909 129.2660675
8 6.962952137 9.505626678 125.2182083
8 3.132649899 6.864262581 121.4696655
8 -1.592877388 6.743561745 118.6619644
8 -4.502542973 7.461355209 112.9922485
8 -2.728889704 9.035833359 107.5206299
8 0.9704615474 6.491053581 104.1949539
