0 -50.22853851 -30.69343376 -29.36950111
4 -49.24077225 -29.92240334 -30.0522995
0 -52.47322464 -27.84166527 -30.0514183
5 -51.82091904 -27.65839005 -31.56635666
0 -54.82644653 -24.77539444 -30.98002815
5 -54.93518448 -25.32830048 -32.27597427
0 -56.5547142 -21.99591637 -31.7020874
5 -57.55862427 -22.48813057 -32.7444191
0 -57.95597076 -19.06067657 -31.97539902
5 -59.25255203 -19.88537407 -32.08841324
0 -59.53772736 -15.87288475 -32.18484116
5 -60.47926712 -16.13277245 -31.57814217
0 -60.79664993 -12.8237648 -32.17251205
5 -61.41953278 -13.01992798 -30.90395737
0 -61.84805298 -9.737711906 -32.20924377
5 -61.58062744 -9.560284615 -30.66814613
0 -62.49650192 -6.393802643 -31.66399193
5 -61.27970505 -6.428451061 -30.49363327
0 -62.68354797 -2.339829922 -31.13254929
5 -60.79466629 -2.224607706 -30.87426758
0 -62.82658768 0.9761758447 -30.70241547
5 -61.51072311 1.159772992 -31.38284492
0 -62.93704987 4.118435383 -30.08262825
5 -62.24813843 4.121090412 -31.46926498
0 -62.39929199 8.052877426 -30.30256271
5 -62.49240494 8.02367115 -31.86879539
0 -61.47641373 11.54732609 -30.48034096
5 -62.27207565 11.44286823 -31.75212669
0 -60.27235794 14.62194729 -30.37175369
5 -61.43740845 15.24581242 -31.05802917
0 -58.76058578 17.87259293 -30.25478363
5 -60.11777115 18.76551437 -29.95796776
0 -56.86204147 21.09909821 -29.63505936
5 -58.04225922 21.58603096 -28.53950119
0 -54.96598816 24.22601891 -29.34381866
5 -55.33707047 24.23474312 -27.69466019
0 -53.06523132 26.51342773 -28.93012238
5 -52.84152603 26.0020237 -27.61223412
0 -50.92267227 28.96501923 -28.10547829
5 -49.92267609 28.12980843 -27.17845345
0 -48.95770645 31.58780479 -27.75143814
5 -47.77639771 30.88440895 -27.78788567
0 -46.80653763 33.59762955 -27.09215736
4 -45.72328186 32.81518555 -27.93239784
0 -9.06628418 4.059936523 49.14742279
4 -8.206643105 4.222346783 47.81982422
0 -11.59455204 5.759184837 47.02197647
5 -10.84803867 5.006071568 45.63696671
0 -13.34843636 7.342301369 44.89844131
5 -13.45485783 6.007582188 43.96534348
0 -15.98596096 9.15071106 41.7804718
5 -16.73457146 7.571534157 41.34591293
0 -17.84747314 10.84858322 39.9066658
5 -18.72013664 9.907094955 40.13235855
0 -19.73794174 12.8382597 38.21861649
5 -21.09491348 12.52245522 39.0989151
0 -21.18705559 14.41290283 36.33150864
5 -22.17873955 14.88251495 37.73607635
0 -22.60844994 16.11991882 34.43206787
5 -22.74882126 17.31040573 35.62493134
0 -24.35705948 18.3583374 31.9506073
5 -23.45913124 19.58523941 32.36044312
0 -25.67227364 19.96806908 29.7552948
5 -24.45344543 20.686306 29.6421032
0 -27.13223267 21.89149857 27.84620285
5 -25.80816269 22.29322433 27.29047012
0 -28.75834084 24.26256371 25.55904198
5 -27.86144638 23.46555328 24.34285927
0 -30.4426899 26.46843529 22.88776398
5 -30.45650673 25.38179779 21.93486786
0 -31.80321312 28.16254044 20.72947311
5 -32.3716774 27.11634827 20.18792534
0 -33.19574738 29.77132225 17.41165924
5 -34.34836578 28.98201561 17.45610809
0 -34.4324913 31.52661514 13.73256111
5 -35.77235794 31.53444099 13.79862022
0 -35.08631897 32.86768723 10.94014549
5 -36.27589035 33.78067398 11.56438065
0 -35.77478027 34.30042267 7.739405632
5 -35.88392258 35.66027451 8.237090111
0 -36.2541008 35.72075272 4.826509953
5 -36.0394516 37.12601471 5.180830956
0 -37.25986862 37.63538742 1.030308247
5 -36.34667969 38.59206772 1.098488808
0 -37.72565842 39.49427032 -2.037347555
5 -35.84868622 39.79175568 -2.061312914
0 -37.7257843 41.47781372 -5.791367054
4 -36.61919022 41.00252151 -6.182875633
1 31.1178112 4.963179111 -17.13303185
4 30.4515934 3.695985794 -16.83078766
0 27.12886047 6.931220531 -17.42562294
5 26.88425064 6.268836021 -16.41082954
0 24.31702995 8.511948586 -17.74517441
5 24.30608559 8.300231934 -16.24394798
0 21.23989868 10.50042343 -18.08366203
5 21.67403412 11.43265438 -16.81576729
0 17.28004074 12.68544006 -18.45239639
5 17.81682205 13.90757561 -17.73335838
0 14.40092087 14.1165123 -18.89585304
5 15.19161034 15.41157627 -19.26016998
0 11.42239666 16.14412689 -19.58482552
5 11.97139072 17.25825691 -20.77352142
0 8.458723068 17.89655685 -19.96735001
5 9.005390167 18.24457741 -21.38029289
0 5.458957195 19.94599915 -20.19359207
5 5.606110573 19.53150368 -21.64178848
0 2.299989939 21.8081646 -20.62134743
5 1.84401083 21.00976181 -21.75644112
0 -0.4965315163 23.24549294 -20.78589249
5 -1.133487463 22.03993988 -21.17599869
0 -4.184673309 24.94463921 -20.78467751
5 -4.653080463 23.67058563 -20.07503891
0 -7.275750637 26.19371605 -20.64100266
5 -7.635015488 25.46234512 -19.51057816
0 -10.26657867 27.64715767 -20.40897369
5 -10.14322758 27.7142067 -18.80784225
0 -13.10908318 28.91136169 -20.13223076
5 -12.64531517 29.614254 -19.06473732
0 -16.78346825 30.33116722 -20.29411697
5 -16.39276314 31.455019 -19.66889191
0 -20.02860832 32.13145065 -20.62490845
5 -19.20682907 33.32622528 -20.61011696
0 -23.64126396 34.21131897 -20.92895508
5 -23.15789986 34.90690231 -21.93522453
0 -27.44462967 35.60379028 -20.7885952
5 -27.49174881 36.14603043 -22.06873512
0 -30.45598221 36.9429245 -20.41796112
5 -31.03188896 36.35059357 -21.95616722
0 -33.915802 38.07734299 -19.43965721
5 -34.41600418 36.88618851 -20.37986946
1 -38.05950546 39.49789429 -17.74299812
4 -38.46964645 38.09181213 -17.38521957
0 33.16331482 -2.308743954 -5.84957552
4 31.67387199 -2.529333353 -5.339492321
0 34.61473846 -4.221386909 -3.001746416
5 33.50744247 -5.220440388 -2.891992569
0 35.55955505 -5.590080738 -0.5381643176
5 34.7854538 -6.916989803 -1.017866373
0 36.50053406 -7.345310688 2.273492575
5 36.55435944 -8.726543427 1.329018712
0 37.39307022 -9.333449364 5.203639984
5 37.79240799 -10.57678223 4.384655476
0 37.6487999 -10.97512436 8.435451508
5 39.15097427 -11.88840389 8.037751198
0 37.2579689 -12.55571365 11.75196075
5 38.84069443 -12.81499863 11.58503914
0 36.55687714 -13.98057079 15.24424839
5 38.08515167 -13.7013464 15.56365204
0 35.30140686 -14.92974854 18.84864426
5 36.53095627 -13.95742893 19.41476822
0 34.85914612 -15.47996998 22.34192276
5 35.13015747 -14.08603477 22.80721474
0 34.13664627 -15.70211029 25.90312195
5 33.9212532 -14.43815613 25.75775337
0 33.30805969 -15.64922905 29.13337708
5 32.22009277 -14.72358608 28.58993721
0 31.44207191 -15.47455025 33.15684891
5 30.15695 -15.64357567 32.36623383
0 29.9972744 -15.52926826 35.98045349
5 28.82859993 -16.24640083 35.53072357
0 27.9219017 -14.98048782 39.38407898
5 27.51879311 -16.49830246 39.2110672
0 25.94345093 -14.47186756 42.06423187
5 26.23876762 -15.8302927 42.37535477
0 23.76389885 -13.75865078 44.61548996
5 24.4814167 -14.71109867 45.64593124
0 21.40556908 -13.02395248 47.16133499
5 22.52728271 -12.91932106 48.33524704
0 18.61083221 -12.11154366 49.37558365
5 19.58791351 -11.2704525 50.26093292
0 16.35679817 -10.79554939 51.25547791
5 17.30245018 -9.576859474 51.34395218
0 12.9994688 -8.480940819 52.86128235
5 13.31116772 -7.077266693 52.19801712
0 9.908574104 -6.523728848 54.30652618
4 9.910860062 -5.386749268 52.76040649
1 -40.67292786 -28.61974144 -18.25570297
4 -40.43174744 -27.13546944 -18.251791
0 -38.88713837 -27.87716293 -14.56520748
5 -39.73231506 -26.78386497 -14.14986515
0 -37.08335114 -27.39266396 -11.13974953
5 -38.44423676 -26.99225807 -10.27169895
0 -35.16523743 -27.14155579 -8.329198837
5 -36.01453018 -27.83218765 -7.146194458
0 -32.78409576 -26.68956375 -5.349308968
5 -33.10808945 -27.69131088 -4.625020981
0 -30.74982262 -25.76450539 -2.623470068
5 -30.71389389 -27.0499897 -2.132408619
0 -28.0719471 -24.99066734 0.2699365318
5 -27.74313164 -26.15605736 -0.01814590581
0 -25.64747429 -24.18231201 2.918542385
5 -24.39745712 -24.97834206 2.235165119
0 -23.94472313 -23.1047039 5.402143955
5 -22.71665192 -22.85122871 4.7787323
0 -22.28699493 -21.94281769 8.207170486
5 -21.51281357 -21.15577507 7.247911453
0 -20.19408989 -20.99320221 11.09669209
5 -20.46076393 -19.55217743 10.7038641
0 -19.09881401 -20.23496246 13.71396065
5 -19.76179504 -18.77427101 13.8072052
0 -17.07258034 -19.4324646 16.81971169
5 -18.43787766 -18.61927414 17.21991539
0 -14.99169159 -18.31548691 19.89938545
5 -15.84465885 -17.06896019 20.06435394
0 -13.30279922 -17.64271164 23.05968285
5 -14.52646351 -17.05076599 23.68387794
0 -11.4213562 -16.94668198 26.14825821
5 -12.89024734 -17.09164619 26.86064529
0 -10.12819099 -15.68272591 29.3669281
5 -10.90597057 -16.31982422 30.05819702
0 -8.947342873 -14.57031822 32.62975693
5 -9.554848671 -16.10478783 33.47705841
0 -7.496828079 -13.37298775 35.65215683
5 -7.060159683 -14.63782597 35.7671051
0 -6.474260807 -12.28364563 39.23338699
5 -4.991197109 -13.13654613 38.97637177
0 -5.0141716 -11.32807636 42.43243408
5 -3.554418087 -11.44388866 41.77903366
1 -2.201987028 -9.622900963 46.94281769
4 -1.15039289 -8.748415947 46.17707062
0 -32.35237503 -34.23291397 -32.21523285
4 -33.14904022 -32.9937439 -32.64367294
0 -29.58200264 -32.96686554 -33.36820984
5 -30.08519173 -31.35905075 -32.78362274
0 -26.19650841 -31.46143723 -34.34875488
5 -26.28229904 -30.88436317 -32.9138031
0 -22.87960243 -30.47396278 -35.1698494
5 -22.63639259 -30.80573845 -33.87427139
0 -19.79242325 -29.49034882 -35.93806458
5 -19.1831131 -30.56783104 -35.08021927
0 -16.06832695 -28.59536743 -36.60535049
5 -15.6554575 -30.29499245 -36.49771118
0 -12.69915581 -27.69815826 -36.92145157
5 -12.07983208 -29.10889244 -37.69255829
0 -9.745516777 -26.62382126 -37.13759995
5 -9.767572403 -27.39529991 -38.63893509
0 -6.052368641 -25.30766296 -37.66460419
5 -6.208143711 -24.91262436 -39.02962875
0 -2.961715698 -23.90911102 -38.03258133
5 -3.516401768 -22.83239365 -38.82990265
0 -0.3076796234 -22.80776787 -37.87430573
5 -0.6301041842 -21.19497299 -38.20551682
0 2.472008705 -21.1011219 -37.48722076
5 1.931214213 -20.06755638 -36.67450714
0 5.777293682 -18.73583984 -37.02382278
5 5.01192522 -18.51417351 -35.57812119
0 8.362112999 -16.81011009 -36.30130005
5 8.235515594 -17.1354332 -34.74030685
0 10.67561913 -14.80528545 -35.41100311
5 10.97070503 -15.90287971 -34.10363007
0 13.06890011 -12.65485287 -34.31197739
5 13.99400616 -13.7943697 -33.81183243
0 16.00067139 -10.42294121 -33.13199997
5 16.7446022 -11.48127651 -33.59199905
0 19.00565338 -8.57019043 -31.68077087
5 19.82465935 -8.997926712 -33.14572906
0 21.17768669 -7.357935905 -30.82094002
5 21.65350151 -6.997208595 -32.25806808
0 23.95726967 -5.82368803 -29.78632927
5 23.77905846 -4.971203804 -30.89426041
0 26.83131981 -3.764208794 -28.45228195
5 26.04768753 -2.531217098 -28.46376038
0 29.51549911 -1.872299075 -27.40651321
4 28.53567696 -0.9034068584 -26.62563133
6 -43.12390518 41.74671173 -26.11617088
6 35.74914932 3.662823439 -26.44484329
6 -50.21663284 -32.03527069 -20.46336746
6 -6.558651447 -3.774976254 52.90576553
6 3.675179005 -12.43112278 54.92687988
6 -35.56708145 -35.11241531 -23.93356705
6 34.6870079 6.023458481 -7.847443104
6 -38.24902344 47.32851791 -10.78183746
2 -44.49356842 -47.64090729 -33.67287445
4 -44.38029861 -48.0033493 -35.33625412
0 -46.0879097 -50.08437347 -33.1389389
5 -45.70160294 -50.87128067 -34.22425461
0 -47.88663864 -52.97491455 -32.83152008
5 -46.40444946 -53.86351776 -33.53692627
0 -49.44246292 -56.09476089 -32.44215393
5 -48.14049149 -56.55887985 -31.89369774
0 -51.16601944 -58.74339294 -32.18078995
5 -50.41625977 -59.16704178 -30.92680359
0 -53.69334793 -61.54210663 -32.32355499
5 -53.73716736 -61.54143524 -30.83580208
0 -56.19223785 -63.57748413 -32.43017578
5 -56.50158691 -63.09755325 -31.02184486
0 -58.99637604 -65.96875763 -32.79477692
5 -59.89451599 -64.92208099 -31.86952019
0 -61.75859451 -67.31625366 -33.18936157
5 -62.53787613 -66.10910797 -33.29970932
0 -64.78944397 -69.28554535 -34.41466141
5 -65.09046936 -67.95637512 -35.21326065
3 -67.66939545 -71.31035614 -35.28440475
4 -67.94622803 -70.92622375 -36.68772125
2 -52.60369492 30.79099655 -9.911873817
4 -53.83950043 30.50875664 -9.324496269
0 -52.27952957 33.75234222 -10.25332832
5 -53.56481934 33.7026329 -9.317017555
0 -52.23036575 37.35937881 -10.82196331
5 -52.80025864 37.72024536 -9.39776516
0 -52.65299988 41.05854797 -11.48193073
5 -52.30786514 41.35748291 -9.915809631
0 -53.02142715 44.43124771 -12.08823204
5 -51.97304916 44.76758194 -11.45263481
0 -53.77326202 48.11427307 -12.87472725
5 -52.23998642 48.31612396 -13.14036369
0 -54.58870316 51.93135834 -13.45884895
5 -53.31658554 51.93603134 -14.24001789
0 -55.21211624 55.1535759 -14.00686741
5 -54.65749359 54.9021759 -15.31235313
0 -55.63343811 58.95628357 -14.81919765
5 -55.7659111 58.67347336 -16.33542442
0 -56.39677811 62.12485886 -15.25340176
5 -57.30595398 61.77714539 -16.4441452
3 -57.51259232 65.12354279 -15.55481911
4 -58.97974014 65.03710938 -16.32167053
2 38.79278183 -14.89100838 -18.65881348
4 37.72278976 -16.18079758 -18.59539604
0 41.75918579 -16.21521378 -18.48688889
5 41.19145966 -17.09121323 -19.13566971
0 44.66902924 -17.44462776 -18.2121582
5 44.63206863 -17.61532974 -19.8673172
0 47.57703018 -18.84530449 -17.78105164
5 48.0607338 -18.49032784 -18.8971405
0 50.68787766 -20.11497879 -17.12495422
5 51.21500397 -18.85674667 -17.6918602
0 53.57473373 -21.64688873 -16.73765373
5 54.30568314 -20.56989479 -16.53681564
0 56.82432175 -23.38484383 -16.48199844
5 57.08242035 -22.37203789 -15.27694702
0 59.88851166 -24.99694443 -15.93687916
5 59.81499863 -24.57714844 -14.56018543
0 62.74277115 -27.08781815 -15.1383934
5 62.02109146 -27.56658936 -13.85902691
0 65.85340881 -29.43341637 -14.58942318
5 65.00078583 -30.61949158 -13.90609837
3 68.68630219 -31.83031845 -14.66827011
4 67.59241486 -32.76534653 -14.89243317
2 -0.5607289076 3.931440592 65.46632385
4 -0.3323182464 5.343468189 65.6672821
0 -1.208737493 3.444816351 68.15005493
5 -1.408232927 4.765149593 68.18031311
0 -1.498694897 3.059789896 72.64107513
5 -2.473932028 4.227780342 72.66849518
0 -1.825832605 2.945347548 75.59242249
5 -2.967545271 3.522901773 75.3655014
0 -2.368334532 3.314371586 78.94517517
5 -3.624606371 3.387089729 78.83124542
0 -2.475176573 4.053806305 82.28778839
5 -3.915358782 3.187100172 82.31118011
0 -2.681953669 4.770362377 85.90773773
5 -3.451956272 3.373592854 85.92094421
0 -2.658067226 5.611559391 89.34221649
5 -2.640678883 4.213646889 89.6769104
0 -2.890038013 6.238421917 92.38623047
5 -1.846803784 5.181926727 92.38594055
0 -2.738466024 7.104692936 96.55727386
5 -1.165410042 6.50200367 96.93062592
3 -2.919586182 7.804096222 100.3284302
4 -1.53835094 8.197746277 100.2720184
7 -66.01219177 -59.12009811 -59.45298004
8 -70.49946594 -60.01349258 -57.55786896
8 -74.42401886 -63.47726059 -59.58110046
8 -78.83791351 -67.49359894 -59.29821396
8 -76.68930817 -68.58393097 -53.5871048
8 -74.69662476 -64.17098999 -49.87168884
8 -77.71775818 -64.05484009 -44.51535797
8 -78.99302673 -63.67558289 -39.23243713
8 -80.64812469 -68.14516449 -35.09805679
8 -76.06451416 -72.04527283 -34.58570862
7 -88.55056 59.51236725 -19.01382065
8 -85.91249847 61.07839584 -18.02202225
8 -79.89418793 60.63632965 -16.71356964
8 -76.26045227 65.87605286 -17.80820847
8 -74.50492096 70.03894806 -19.3778038
8 -73.7658844 76.06069946 -18.53510857
8 -68.98153687 75.1309433 -22.4306469
8 -64.10809326 76.01760101 -19.42059326
8 -61.37556839 74.95030975 -18.75943184
8 -55.97360229 73.15036774 -19.1979084
7 93.3116684 -22.39724731 18.94763565
8 91.63169098 -26.78457832 17.69001389
8 88.64309692 -31.34988785 14.83704662
8 85.64511108 -37.07619858 14.15746212
8 86.98834229 -40.48190308 10.77107334
8 84.43988037 -41.2767334 5.290555477
8 85.44325256 -42.37374496 -0.9300892353
8 81.39952087 -41.82405472 -4.182963371
8 80.72453308 -38.87643051 -9.450572014
8 75.45471954 -36.7047348 -12.14896011
7 12.37662792 -11.21587086 105.4168549
8 17.03627586 -10.49485016 105.918602
8 14.5154829 -5.711493492 108.7647018
8 15.77183151 -2.149441957 113.4568405
8 12.41543674 -0.8458398581 118.3644867
8 9.29164505 3.355003357 119.0212173
8 7.425009727 6.189601421 113.9655991
8 2.019781113 6.269154072 112.8183441
8 -3.976296663 5.100639343 111.7870712
8 -4.776395798 2.326116562 107.2036057
