0 -52.63634491 -31.71317673 -26.77281189
1 -54.97458267 -21.13158226 -30.15915871
1 -55.35174561 -6.129489422 -31.75007629
1 -56.1744194 6.357550144 -31.97455406
1 -55.58699799 21.53173828 -29.89901543
0 -52.57096863 33.10394287 -26.65472984
0 -5.598713875 15.18608856 52.19890213
1 -15.52550507 18.99121094 45.4969368
1 -22.64976311 24.36945534 35.47208023
1 -29.42172623 27.46856689 24.48308182
1 -34.44950104 32.15142441 11.64014816
0 -37.63815689 35.08187485 1.027297258
2 33.04091263 6.478075027 -14.16854095
1 20.8285923 9.645822525 -13.91384888
1 6.335423946 14.81679058 -14.23050308
1 -7.237169743 18.55879784 -13.2213974
1 -21.4601078 22.76200676 -13.33758831
2 -33.37377548 25.14154434 -12.73614597
0 45.58079147 -10.0679884 -1.444415212
1 38.983181 -11.34018326 10.63706017
1 31.85262489 -11.10382366 23.56892586
1 23.69549561 -7.840619087 34.43127823
1 14.87551022 -5.684235096 46.02209854
0 6.345198154 -4.392562389 55.39354324
2 -39.89395905 -29.80994415 -13.96899986
1 -34.83280182 -22.38966179 -3.88698411
1 -27.17331123 -15.23660374 6.273263931
1 -19.84732246 -8.478033066 18.19317436
1 -10.92938709 -4.772014141 26.99036407
2 -4.779239655 -0.3804791272 36.6306839
0 -28.92115021 -26.70954132 -33.54090881
1 -18.61579323 -25.43660736 -36.71890259
1 -6.330325603 -19.47141266 -39.24376297
1 6.599773884 -14.43006611 -35.82038116
1 20.30823517 -12.68883896 -30.65698433
0 29.15720749 -10.32213783 -26.8001976
6 -42.50460434 24.33138657 -22.88425064
6 30.93375015 0.9583084583 -26.79476929
6 -54.00291824 -29.24901962 -14.74346828
6 -0.2262932509 5.17701292 48.16237259
6 2.103658199 -9.990810394 44.94765854
6 -35.26597595 -32.14201355 -25.77517128
6 39.35787964 -5.112604618 -8.03927803
6 -35.28715134 35.11602783 -1.95868659
3 -38.83186722 -41.28642273 -35.91558838
4 -49.91505814 -49.9759903 -35.32662201
5 -64.10600281 -58.34905243 -30.83405304
3 -50.03024673 41.66825104 -10.73258781
4 -59.16788101 48.51215363 -10.42388058
5 -69.0933075 61.35667419 -15.03207207
3 43.69752502 -18.09152603 -18.2153759
4 54.5864563 -26.45319366 -13.110075
5 68.46601868 -36.14631271 -10.18758392
3 6.984344959 11.25710392 64.73324585
4 -0.7296509147 9.765112877 75.81467438
5 -13.14782238 7.361958027 86.5980835
7 -43.61078644 -54.37824249 -58.0837059
8 -49.92541504 -50.46469116 -52.07603836
7 -78.9745636 39.24897003 -18.78219795
8 -65.70794678 41.84809113 -32.72397614
7 82.89074707 -47.89684677 9.388814926
8 76.42657471 -36.88407135 -3.034790277
7 18.58913612 -12.07320786 91.40392303
8 9.39462471 2.85232234 101.7900772
