0 33.03587723 46.7926712 36.7209549
1 17.29018784 39.11973572 30.86240768
1 3.585425138 35.4461441 32.69012451
1 -10.13090706 33.88034058 33.72881317
1 -22.72678375 40.22019577 38.39450073
0 -39.17657471 49.13153076 42.96012878
0 31.95304298 -29.1051693 59.49560928
1 15.21936893 -34.68782425 50.49871826
1 2.819364548 -41.328125 46.8406601
1 -7.538707733 -48.64659119 44.54154587
1 -19.32217216 -54.26688385 42.0994339
0 -35.55653 -61.48030853 37.24817276
0 29.29160309 -52.48281479 -52.97076797
1 13.30978775 -45.86486816 -44.77994919
1 0.5796454549 -37.59469604 -41.54868698
1 -10.32351875 -30.9133625 -44.4078598
1 -23.77377892 -29.22477913 -51.54689026
0 -40.82312393 -25.19288254 -58.6750412
0 33.06718826 -31.50825119 -41.42124939
1 26.82912064 -14.10980988 -34.71580887
1 28.69462967 -0.867809236 -28.61881638
1 34.3502388 10.08279896 -26.7168293
1 43.03950882 20.37408638 -29.51897621
0 54.51602554 32.68546295 -38.96255493
0 36.59335709 40.16646957 -50.30938721
1 24.88737297 33.74619675 -37.53198242
1 12.02235985 30.53761864 -31.51350212
1 -2.612499952 29.60575867 -33.00778961
1 -16.22032547 30.9421711 -38.78956604
0 -29.72854805 37.31892014 -50.42688751
0 -60.50284195 -39.85410309 -43.60355759
1 -51.58618546 -26.15652275 -35.60187149
1 -46.93468094 -13.36053658 -32.59130096
1 -44.0896492 0.3166877627 -31.59253883
1 -42.65132904 14.26334953 -32.54153442
0 -48.40384674 29.39687729 -40.42157364
0 -45.66732788 48.51124954 -39.37955475
1 -38.46688843 37.8487854 -23.9247303
1 -37.56192398 29.94615936 -11.04783535
1 -38.19518661 27.99825096 3.823778868
1 -41.88555527 29.82974625 17.82979012
0 -52.8538208 29.50312042 33.36623764
0 -28.2442379 -34.0303154 50.66788483
1 -27.53396988 -15.67263222 44.89704895
1 -28.14733505 -0.8448037505 42.08231354
1 -31.70690346 12.27778912 44.87340546
1 -39.4082756 22.4410038 52.97399902
0 -53.16482544 32.08493423 61.40016174
0 45.08077621 58.05655289 -33.97658539
1 40.41514587 47.35208511 -20.05605698
1 42.54250336 38.49451065 -8.478347778
1 42.46709442 35.74988556 3.815110683
1 44.13828278 33.60632324 18.03403854
0 49.02746964 34.21803665 37.57524109
0 35.72513962 33.94340515 61.63746262
1 33.88903046 21.59890938 46.81758499
1 30.78526878 10.22073078 39.66978836
1 30.63398933 -2.287250042 33.06122971
1 36.36153412 -14.771595 30.81834984
0 49.58110046 -30.00361252 28.83577156
0 34.95191574 -47.82010269 39.01008224
1 35.15444183 -37.94491196 24.35862923
1 37.74446869 -32.83566284 10.81947994
1 45.01563644 -30.97195053 -3.092406034
1 52.51519775 -29.7963829 -16.78194618
0 63.35670853 -31.07184601 -32.72384644
0 -34.52994537 -52.58228683 -45.86484146
1 -35.62529755 -43.07801819 -27.78473663
1 -39.72126389 -38.493927 -13.46704578
1 -42.45728683 -37.71614838 -0.1174200773
1 -43.6701622 -38.06138611 15.25489044
0 -42.84941483 -36.08972168 34.04640961
2 -35.91725159 49.95942688 46.76712036
2 -41.53553391 -40.80035019 59.63660812
2 38.43776703 -21.39739799 53.95588303
2 30.44031906 40.66817474 67.29486084
2 60.81602859 -29.33636093 34.3302269
2 66.50152588 -31.34693527 -32.10078049
2 58.99577332 36.86392593 -42.26842499
2 48.91407013 23.73963547 43.77883148
2 29.04931068 68.50001526 -46.39222336
2 -21.10057259 46.48659134 -34.91015625
2 -29.49434662 56.8758316 35.36465073
2 28.54975891 48.80583954 32.47631836
2 -58.17212296 40.15950012 -39.03946304
2 -56.94630432 -32.36023712 -48.03226471
2 -48.0827446 -16.15272141 37.99946594
2 -60.10863876 20.93238449 41.72554779
2 -37.04138184 51.24903107 -57.51288223
2 31.42606735 32.16324234 -63.89860916
2 36.01527405 -20.44181061 -52.78004456
2 -46.94628906 -8.144730568 -54.48685837
2 -35.11380005 -50.59704208 -37.4926796
2 35.64831161 -45.96522522 -20.15373802
2 49.37986374 -48.54540253 42.64992142
2 -34.27062988 -54.09828568 7.458227634
