0 27.70466042 48.03055954 40.94096375
2 28.85899353 47.13309097 40.63200378
1 23.23776627 45.74013901 39.1920929
3 23.62211037 44.64317703 39.8062439
1 20.85283852 44.56711578 38.18836975
3 20.65914917 43.80354309 39.57571411
1 17.69745445 42.66442871 37.09225845
3 17.1004734 42.54113388 38.67995071
1 14.99845123 40.84970474 36.40603638
3 14.04850388 41.62863922 37.30422211
1 12.41637611 39.10167694 35.54490662
3 11.65248299 40.64448166 35.55857849
1 8.802718163 37.52026367 34.45197296
3 8.607318878 38.82221985 33.591362
1 5.535498619 36.58648682 33.64476776
3 5.830310822 37.44497681 32.15285492
1 2.215766668 36.02929306 32.76276779
3 2.20753026 35.6138916 31.25976372
1 -1.370585084 35.93599319 32.36471558
3 -1.467297912 34.92601776 31.10183716
1 -4.844685555 35.97362137 32.03334808
3 -5.083542347 34.47542191 31.77363396
1 -7.94830513 36.04842758 31.72422028
3 -8.536162376 34.54309845 32.30002213
1 -11.53670406 36.38879395 31.29131699
3 -11.81903553 35.72807312 32.40485764
1 -15.04557037 37.20174789 31.36444855
3 -15.15234566 36.83536148 32.73130035
1 -18.62996483 38.56731033 31.898283
3 -18.37604523 38.9318428 33.51316452
1 -22.0632 40.04069901 32.88174057
3 -21.34812546 41.07790756 33.95944214
1 -25.39813423 41.48931122 33.364151
3 -24.52059937 42.82155991 33.51840973
1 -28.63973618 43.72841644 34.43460846
3 -28.03487968 44.61656189 33.60299301
1 -31.49753952 45.73722839 35.2064476
3 -31.54419327 46.35282135 33.52050018
1 -35.1427803 47.79281998 36.26182175
3 -35.66856766 47.52674866 34.81013489
1 -37.72507095 49.38578033 37.11824036
3 -38.56848145 48.45047379 36.13302231
0 -41.29174423 52.15000153 38.54655457
2 -42.33515549 50.84337234 38.98133469
0 31.3413868 -31.36567116 55.89924622
2 32.27082443 -31.75921249 54.55683136
1 27.86992264 -32.22822952 54.2461586
3 28.24508476 -33.47889709 53.57876968
1 24.39186287 -32.97385788 52.48457718
3 24.86117172 -34.45610046 52.65495682
1 21.62652016 -33.63980484 51.55353546
3 21.77650833 -34.88919449 52.37518311
1 18.64006424 -35.05532837 50.56887436
3 18.48698807 -35.90669632 51.682827
1 15.22413731 -36.77442932 49.88780594
3 14.9227705 -36.90674591 51.4779129
1 12.54114723 -38.42681503 49.83837128
3 11.96480942 -37.65436554 51.01045609
1 9.544780731 -39.66500854 49.22833633
3 9.007322311 -38.65137482 50.16585541
1 6.032820702 -41.56492615 48.59985733
3 5.387660027 -40.0923233 48.43165588
1 2.821678638 -42.80247879 47.84010315
3 2.613671064 -41.91414642 46.91455078
1 -0.2303670347 -44.40623474 47.2110405
3 -0.03680413961 -44.20470428 45.83149338
1 -3.291500568 -45.42205811 46.5100174
3 -2.509895086 -46.1609993 45.16563034
1 -6.55632782 -46.46232605 45.49058914
3 -6.327418804 -47.67040634 44.91849136
1 -10.57259464 -47.28693008 43.81810379
3 -10.32727909 -48.50083923 44.03453827
1 -13.66248512 -47.90458679 41.87292099
3 -13.73150444 -49.10200119 42.76848221
1 -16.28669167 -48.53970337 40.13772583
3 -16.89642334 -49.50588226 41.47203445
1 -19.60777092 -49.38009644 38.67488098
3 -20.02681351 -49.21644211 40.15908051
1 -22.9415741 -50.41067505 38.09476852
3 -22.90636253 -49.66383743 39.52432251
1 -26.32248688 -51.17898178 37.83972549
3 -26.8185997 -49.91372299 38.44844818
1 -29.43459129 -52.24697876 37.9974556
3 -29.7352314 -50.90935135 37.53081512
1 -32.85520935 -53.57036972 38.51795197
3 -33.0883522 -52.52737045 37.40171051
0 -36.56125641 -54.79173279 38.9527359
2 -36.55414963 -54.74242401 37.21674347
0 32.22405624 -46.3476181 -48.63944626
2 32.94230652 -45.27246475 -47.76888657
1 28.33899498 -44.78784561 -47.0303688
3 28.87630653 -43.58428574 -46.95154572
1 25.60595322 -43.68365479 -46.18227005
3 25.66059303 -42.28298569 -46.7503624
1 22.41048431 -42.47128677 -45.3595314
3 22.48588181 -41.77157593 -46.57291794
1 18.99088287 -41.06142807 -45.07174301
3 19.01084709 -41.17372894 -46.71429825
1 15.44518375 -39.90057755 -45.06559753
3 14.98192596 -40.85726166 -46.13653564
1 12.34619999 -38.7804451 -45.18974686
3 11.70553207 -40.12664413 -45.5775528
1 9.276396751 -37.7923317 -45.19196701
3 8.564324379 -39.17771912 -44.83987808
1 6.610102654 -36.12446213 -45.05272675
3 6.24288559 -36.83922958 -43.81085587
1 3.319869995 -34.25415039 -45.6202774
3 3.158248901 -34.23189163 -44.32953644
1 0.01197648421 -32.64002991 -45.69329834
3 0.2934278846 -31.52307701 -44.66727448
1 -3.151184082 -31.45866966 -46.20673752
3 -2.748301029 -29.92053413 -46.00146866
1 -6.465150356 -30.39838982 -46.68625259
3 -5.853777409 -29.15873146 -46.93264389
1 -9.367566109 -29.13001823 -47.5311203
3 -8.834993362 -28.25543213 -48.69171524
1 -12.72265625 -27.8660183 -48.85756683
3 -12.31857204 -27.78460312 -50.29629898
1 -16.44999313 -26.63076019 -49.71266937
3 -16.6444912 -27.54635048 -50.83699036
1 -19.72161865 -25.37970543 -50.26543427
3 -19.87952805 -26.70886421 -50.9108963
1 -23.33708763 -24.06315422 -50.79610443
3 -23.61927795 -25.13532829 -51.67547607
1 -26.75444984 -22.84790421 -50.85399628
3 -27.38123322 -24.1205101 -50.82228088
1 -30.35149765 -21.90603638 -50.7530899
3 -30.7182045 -23.18473434 -49.88791275
1 -33.38235092 -21.11036491 -50.56175995
3 -33.46541595 -21.44389725 -49.13840485
0 -37.76802063 -21.39605713 -50.15462494
2 -37.9478302 -20.70654678 -48.8249588
0 30.92435074 -27.82924461 -39.30334091
2 31.22271156 -28.6343174 -38.21208191
1 29.51129532 -24.29032326 -36.49161911
3 30.84040833 -24.78178978 -35.75576019
1 28.45550919 -21.56746864 -34.56567383
3 29.76736259 -21.2430706 -34.45485306
1 27.64405632 -18.68964005 -33.13432693
3 28.84422684 -18.06466103 -33.89006042
1 26.62159729 -15.63355732 -31.70882034
3 27.27762222 -14.94834328 -33.00512314
1 25.88033867 -12.49075127 -30.23999405
3 25.47850227 -12.04484844 -31.48987007
1 25.19866753 -9.884535789 -28.81447792
3 24.20529366 -9.535330772 -29.7132988
1 25.36431313 -6.570311546 -27.78689766
3 23.6461792 -6.134684086 -27.97494316
1 25.7858696 -4.026641369 -26.97063828
3 24.48994255 -3.786635637 -26.08663559
1 27.19739342 -1.115872979 -26.02636528
3 26.35346031 -1.015933633 -24.43014526
1 28.44386864 2.12972641 -25.490345
3 28.55322266 1.725121021 -24.05765915
1 30.06412125 4.934856892 -25.14055634
3 31.24339867 4.407439232 -23.93333244
1 31.94768524 8.320335388 -25.20453262
3 33.19543076 7.761306763 -24.80680275
1 33.16872787 11.09014988 -25.77177429
3 34.15959549 10.43843937 -26.21894455
1 35.28121567 14.1012001 -27.01744461
3 35.46484756 13.38157654 -28.5082531
1 36.89774704 16.490839 -28.46208763
3 36.30713654 16.35913849 -29.86681938
1 38.96208572 19.51078796 -29.71756172
3 39.54621506 18.64748192 -30.59828186
1 41.45546341 22.12323952 -30.98622322
3 41.2999382 21.53888702 -32.0658989
1 44.06034851 24.78274536 -32.52098465
3 43.31162643 24.72853088 -34.02552414
1 46.50641632 27.08712769 -34.22649002
3 45.5954361 27.38201141 -34.95273972
1 48.22914886 28.87915802 -36.05934143
3 46.89175415 29.77233315 -36.14390182
0 51.11183167 31.51410103 -39.01135254
2 50.63150787 32.99777603 -38.56856155
0 34.44770813 39.62041473 -41.75152588
2 35.50045776 39.37084579 -40.88623428
1 30.78943062 38.59292221 -38.50855255
3 31.20154762 39.39004898 -37.21482849
1 28.02828407 37.90041733 -36.57374191
3 28.16412163 39.23540115 -36.04417419
1 26.10464287 37.29297256 -35.7326355
3 25.25932121 38.54483414 -35.89481354
1 23.36663437 36.2533226 -34.9353981
3 22.78477859 37.11210251 -35.74032974
1 20.4651165 34.8763504 -34.19781113
3 20.03403282 34.95546722 -35.64489746
1 17.37938309 33.95133209 -33.7557106
3 17.04204559 33.45434189 -35.09517288
1 14.21519279 32.22787094 -33.42248917
3 14.54746056 31.15864182 -34.77058411
1 10.46601868 30.5128479 -33.27109909
3 11.26894569 28.94146347 -33.38871384
1 7.10764122 29.27495003 -33.55310822
3 7.269978046 27.95217896 -33.04598999
1 4.543791771 28.53910446 -34.26249695
3 4.265079498 27.89275742 -32.86154938
1 0.6839997768 28.16020203 -35.838871
3 0.02562106587 28.05475807 -34.58182907
1 -2.416787386 28.14460754 -37.67861176
3 -2.92048049 28.88945389 -36.54796219
1 -5.871747017 28.10850334 -38.86618042
3 -6.310612679 29.45799255 -38.04565811
1 -9.24886322 28.61678314 -40.27119827
3 -9.299328804 30.25548553 -40.37812805
1 -11.68889332 29.08172989 -41.7062912
3 -10.88651276 29.86204147 -42.15447235
1 -14.13610744 30.34411621 -43.17483902
3 -13.11038876 30.67614746 -44.50369263
1 -16.50971031 32.64685059 -44.87420654
3 -16.17647171 32.0598526 -46.25167465
1 -19.33691025 34.25728607 -46.30002594
3 -19.34181023 33.09977722 -47.48958969
1 -21.82016945 35.44467163 -47.68428802
3 -22.30637932 34.00708389 -47.96649551
1 -24.86182594 37.25050354 -49.25146103
3 -25.677742 36.19094086 -48.6043129
0 -27.75727654 39.66666031 -50.56278992
2 -28.82060242 39.87762833 -49.33109283
0 -57.83109665 -36.4859848 -43.10544586
2 -56.39598846 -36.23762894 -43.66558838
1 -57.3184166 -32.87617874 -40.25506973
3 -56.61315155 -32.24720383 -41.32295609
1 -57.11990356 -30.02158165 -38.00339127
3 -57.22566605 -28.91487122 -39.1734581
1 -56.26176834 -27.47652626 -35.63768387
3 -57.002388 -26.56988907 -36.45798111
1 -55.26870346 -24.55315781 -33.38034439
3 -56.65983963 -24.06710052 -33.36724472
1 -53.96563339 -22.12566566 -31.65274048
3 -55.20130539 -21.57798004 -30.66439438
1 -52.35350037 -19.10056114 -30.2527504
3 -52.94986343 -19.44181061 -28.96765518
1 -50.98420334 -16.52641678 -29.27269936
3 -50.81102753 -17.14291191 -27.78111267
1 -49.10112381 -13.30712986 -28.65732574
3 -48.17621231 -13.80191898 -27.66378975
1 -47.9874649 -10.44631767 -28.63273239
3 -46.20066833 -10.97763824 -28.5421505
1 -46.77757645 -7.315579891 -28.90057373
3 -45.40104675 -7.792528629 -29.56385231
1 -46.01126862 -4.270934582 -29.47600937
3 -45.28031921 -4.477746487 -30.77695084
1 -45.37664413 -0.5375591516 -30.42604065
3 -45.47328186 -0.9959942698 -31.78231239
1 -45.27441788 2.28124094 -31.34560776
3 -46.33994675 1.731797218 -32.24287796
1 -45.90291595 6.198382378 -32.5811348
3 -47.19312668 6.133347034 -32.69118881
1 -46.50526428 9.203557968 -33.82281113
3 -47.76847839 9.554382324 -32.91732025
1 -46.94978333 12.4762907 -35.20228577
3 -47.67361832 12.99364948 -34.00203323
1 -47.59867477 15.6814909 -36.40244293
3 -47.29649734 16.21406555 -35.07455444
1 -48.12819672 18.15283012 -37.21821594
3 -47.18767166 18.65909767 -36.48732758
1 -49.21828461 21.84063339 -37.74737167
3 -47.78149796 22.17723656 -37.82604599
1 -50.51110458 25.4063797 -38.36505127
3 -51.71038055 25.19677734 -37.42569733
0 -52.30289078 29.89651299 -39.46863556
2 -52.49575806 30.22153282 -37.79032516
0 -42.20907211 46.93431854 -39.12532425
2 -42.23987961 45.92673492 -40.14163971
1 -40.47383499 44.88002777 -35.8719635
3 -39.5862999 44.42101669 -36.74583817
1 -39.38563538 43.21480179 -33.16473007
3 -37.91026688 43.18850708 -33.52334595
1 -38.73077011 40.85321426 -30.73468018
3 -37.37307739 41.64014816 -30.43930817
1 -37.81679535 38.91212463 -28.20843506
3 -37.3283577 40.37252808 -27.55825996
1 -37.2720871 36.78029251 -24.68407249
3 -37.85265732 38.01998901 -23.9727478
1 -37.02939224 35.25604248 -21.52370453
3 -38.29642868 35.71357727 -21.18010521
1 -37.30261612 33.59977341 -18.30109406
3 -38.83195877 33.7132988 -18.36194801
1 -37.64650726 32.03997421 -14.88831234
3 -38.92631531 31.23566437 -15.47621918
1 -37.89084625 30.54007149 -12.09975815
3 -38.23885727 29.42735672 -12.74866009
1 -37.9002037 29.18631363 -9.200078011
3 -37.62813568 27.86240196 -9.779097557
1 -38.25699234 27.53877258 -5.847290993
3 -37.04190063 26.62656021 -6.140755653
1 -38.739254 26.84242439 -2.789737225
3 -37.23817825 26.60031319 -2.553714752
1 -39.38926697 26.5442543 1.370587707
3 -38.10697556 27.12869263 1.890795946
1 -40.46509933 26.29485512 5.035420895
3 -39.90279388 27.57998085 5.491583347
1 -41.10929108 25.86616516 8.493980408
3 -41.2934227 27.57050705 8.341825485
1 -41.984272 26.39644051 12.65194321
3 -43.01883698 27.22237206 12.07185364
1 -42.56721878 27.06097603 15.82560635
3 -44.0727272 27.16592598 15.65065861
1 -43.56768799 28.18159103 19.1643486
3 -45.05793381 27.09824753 19.23331261
1 -44.11325836 29.43613815 22.09670258
3 -44.70368576 27.84514618 22.32715034
1 -44.54731369 30.1184082 25.8065052
3 -43.95380402 28.88706017 26.04778099
0 -44.5623436 31.11506271 29.98372269
2 -43.27157974 30.21600914 30.03497887
0 -29.1063633 -30.25925636 52.34319305
2 -28.1730175 -30.93903542 51.72955322
1 -27.23159981 -26.40375328 51.56297684
3 -26.79009628 -26.93361855 50.05516434
1 -25.63667488 -23.24824715 50.69549942
3 -26.08132935 -23.51939774 49.30376434
1 -24.32482147 -20.02568626 49.91304016
3 -25.31862259 -19.74100304 48.69782639
1 -23.39725876 -16.94293594 49.54104614
3 -25.08487129 -16.82574463 49.09584427
1 -22.86926651 -13.12409782 49.07105637
3 -24.0349369 -12.86538696 49.74733734
1 -22.41364479 -9.430252075 48.72790146
3 -23.00811386 -9.493503571 49.83897018
1 -22.93746185 -5.612957478 48.28139496
3 -22.83503914 -5.452723026 49.74649429
1 -23.20354462 -2.383915663 48.18318939
3 -22.32993317 -2.343350649 49.15349579
1 -23.70480537 1.774227619 48.46561813
3 -22.52392769 2.407358646 48.59221649
1 -24.72900772 4.864973068 48.76709747
3 -23.56411171 5.510948181 47.91204453
1 -26.55473709 7.551482201 49.05942154
3 -26.43528938 7.998837471 47.61875916
1 -28.37682915 10.22143841 49.38778305
3 -28.74196815 10.24561691 47.86746597
1 -30.70072746 13.08463955 49.74315262
3 -31.72890091 12.53051376 48.18477249
1 -32.96611404 16.18784904 50.27336121
3 -34.11189651 15.24440861 49.84861374
1 -35.46295929 18.45668983 50.92319107
3 -36.36034012 17.36381531 51.42809296
1 -38.13005066 20.94967461 51.03723145
3 -38.49015427 20.33760452 52.41616821
1 -40.46772003 22.77178383 51.74052429
3 -40.42982101 22.69855118 53.02449799
1 -43.40861511 24.65750122 52.19249725
3 -42.65329742 25.40244484 53.24887466
1 -46.13381577 26.41874504 52.44037247
3 -45.35097504 27.63811684 52.77687073
1 -49.69629288 28.00794601 52.45532227
3 -49.05224609 29.47589302 51.82859802
0 -53.95943069 30.22886086 52.75804901
2 -53.45247269 30.98130608 51.19038391
0 41.2178421 55.69714355 -34.95471191
2 40.18205643 54.6148262 -36.04056549
1 41.58619308 52.60929871 -31.76157761
3 41.71197891 51.31825638 -32.87601471
1 41.50370789 49.75207138 -28.83418846
3 42.63925552 49.27943039 -29.43567276
1 41.81869125 47.45142746 -26.0461731
3 43.58598328 47.55500412 -26.15901184
1 42.09851456 44.53927231 -23.01066208
3 43.25488663 45.4385376 -22.46675873
1 42.22420502 42.31554413 -20.05647659
3 42.65062332 43.56929016 -19.32169533
1 42.16799545 40.15341568 -17.15185165
3 41.79433441 41.10246658 -16.3320179
1 42.11565399 37.92675781 -13.79525375
3 40.95940399 38.67896271 -13.2092638
1 42.51026535 36.48950195 -10.7112751
3 40.96392822 36.9944458 -10.30150604
1 42.6634903 35.23277664 -7.477253914
3 41.09672165 34.95930481 -7.358776569
1 43.10174942 34.21830368 -4.54759407
3 42.07045364 33.28450775 -4.787858009
1 43.13942719 33.39452744 -1.053195596
3 43.02640533 31.96343803 -1.312111378
1 43.66868973 32.72531509 2.305640697
3 44.19918823 31.24384117 1.852805972
1 44.79898071 31.63238144 5.673409462
3 45.93233109 30.71646118 5.163265228
1 45.23299026 31.71297073 9.019983292
3 46.79312134 31.36723709 8.892054558
1 46.10084534 31.58039856 12.49072647
3 47.52988815 31.94636917 12.21911526
1 46.85182953 31.16267776 16.12474632
3 47.90117645 31.94582748 16.06341553
1 47.93462372 31.17559052 19.7973156
3 48.43736649 32.76259613 19.47031593
1 48.73677444 31.43205643 22.68198586
3 48.48584747 32.88291168 22.55386162
1 49.6147995 31.72771454 26.02373505
3 48.38515091 32.12605667 26.20804214
1 50.66122055 32.22062683 29.73940659
3 49.17202377 31.93643379 29.90985107
0 51.01686096 33.20319366 33.86661911
2 50.22320175 32.03678131 34.23042297
0 33.28437042 34.99052811 55.66308212
2 32.3748436 36.13432312 54.75898743
1 32.37890625 31.92563629 53.58399963
3 32.4623909 32.69875336 52.28053284
1 31.70364189 28.59985542 52.19464874
3 32.65846252 28.77036667 51.24269104
1 30.93844223 25.65394783 50.86199188
3 32.61354065 25.26029778 50.54425812
1 30.19313049 23.01976395 48.93619537
3 31.34503746 22.45485687 49.65647507
1 29.5709095 20.61232567 47.07340622
3 29.88242722 19.69143105 47.82756042
1 29.01099396 17.89625549 44.91862106
3 28.48394966 17.22157288 46.14300156
1 28.42987442 14.79140854 42.74752045
3 27.22952843 14.44497204 43.44552231
1 27.70476913 11.46974373 40.92437363
3 26.35585213 11.56966686 40.9280014
1 27.37195969 8.460593224 39.28742218
3 25.90223503 8.870437622 38.43797302
1 27.75517273 5.07848978 37.34818649
3 26.9204464 5.644720078 36.2389183
1 28.27127075 2.551657438 35.87363052
3 27.85733604 3.556281328 34.34499359
1 29.31523323 0.118485339 34.37550354
3 29.57716179 0.9925461411 33.20167542
1 31.04929924 -2.768580198 32.49048615
3 31.92780113 -1.839902401 31.64494514
1 32.82458878 -5.773121834 30.97977257
3 34.15221786 -4.989273548 31.12186623
1 35.21263123 -8.97292614 29.39920998
3 36.31263351 -8.563673973 29.93027687
1 36.67071533 -12.02635002 27.81918716
3 37.86764526 -11.87134838 28.85733795
1 38.05487061 -15.05573845 26.93704414
3 38.22840881 -15.51660347 28.49758148
1 39.62932587 -17.20924759 26.16835403
3 38.70048904 -18.02950668 27.42329979
1 41.34117126 -19.85298157 25.99101067
3 39.87982178 -20.48842812 26.73320389
1 42.9911232 -22.36761284 26.39326477
3 41.67822647 -23.47770119 26.0258255
0 46.9941597 -26.19517899 26.82070351
2 46.40490723 -26.84228134 25.41965294
0 34.06758118 -46.06410217 38.92534256
2 33.21202087 -45.2021637 39.81324387
1 33.02644348 -44.93104935 34.60627747
3 32.88819504 -43.46724701 35.11217117
1 32.59314346 -43.68644333 31.31706238
3 33.40241241 -42.537117 31.46562195
1 32.61750412 -42.54561996 27.60742378
3 33.86060715 -42.08374405 27.86614418
1 32.66113663 -41.29153442 24.73967743
3 34.4029541 -41.30470276 24.57977676
1 32.77701187 -39.20449066 21.15266418
3 33.94183731 -40.15502167 20.81501389
1 32.76517487 -37.96861267 17.92028427
3 33.42716217 -39.66172409 17.39587402
1 33.34669495 -36.76340485 14.91722202
3 33.16931152 -38.4467926 14.53567982
1 34.20378876 -35.62221146 11.72398567
3 33.13741302 -36.68875504 11.44124603
1 35.32975006 -34.7864151 8.759290695
3 34.12470245 -35.13441086 8.373407364
1 36.9522171 -33.47294998 5.447817802
3 35.51828766 -32.77155685 5.060866356
1 38.52687073 -32.00721741 2.26826334
3 37.52355576 -30.61579895 2.551501513
1 39.60784912 -30.64238167 -0.4427143931
3 39.54174042 -29.37277222 0.1250197142
1 41.15729523 -29.55548668 -3.566720247
3 41.9396019 -28.58944893 -2.682653189
1 43.30806351 -29.09126663 -7.100844383
3 44.1996994 -28.67399216 -6.191232681
1 45.2361908 -29.03190613 -10.04299259
3 46.5850029 -29.74586678 -9.40054512
1 46.9161377 -28.91903114 -12.48692226
3 47.37241745 -30.11342239 -12.28785038
1 49.06485367 -28.54320335 -15.61075401
3 49.02651596 -30.1027813 -15.85873127
1 51.07049561 -28.73904991 -18.3050499
3 50.33169556 -29.79054451 -18.70623398
1 53.54122543 -29.18305588 -21.47690773
3 52.42766953 -29.55813217 -22.53688622
1 55.58050919 -29.51783562 -24.1805706
3 54.69198227 -29.39369583 -25.10103989
0 58.67441177 -29.72405624 -27.1264534
2 57.8241272 -28.75044823 -27.69357872
0 -28.96419525 -39.8186264 -44.31847
2 -27.21074486 -39.60195541 -44.31100082
1 -29.27328873 -38.85557556 -39.87178802
3 -28.59846306 -37.73765182 -39.74052429
1 -29.88684654 -38.32389069 -36.58993912
3 -29.98913002 -36.79083252 -36.84784317
1 -30.77205276 -38.11458588 -32.63539505
3 -31.38903999 -36.84801102 -32.5306015
1 -31.62409401 -37.92874527 -29.52484894
3 -32.97392273 -37.07565308 -30.07038116
1 -32.90462494 -37.4858284 -25.91544533
3 -34.05463028 -37.70185089 -26.48674393
1 -34.31115341 -37.30888748 -23.3176899
3 -35.22492218 -38.25783157 -23.75542068
1 -36.273983 -37.23913574 -19.85694504
3 -36.26791763 -38.54925919 -19.84721184
1 -37.3322525 -37.14662552 -16.24245453
3 -36.75709534 -38.56607437 -15.80997562
1 -38.71155167 -37.20112228 -13.19114494
3 -37.36766434 -37.93244171 -12.5185957
1 -40.12272263 -36.66785431 -9.191409111
3 -38.72106934 -36.71731567 -8.972160339
1 -40.62703323 -36.72092438 -6.209149361
3 -39.38347244 -35.70776749 -5.798175812
1 -40.57659912 -36.56217194 -2.39089036
3 -39.87842941 -35.17339706 -2.401587725
1 -40.73775864 -36.06241226 1.591584444
3 -40.50944519 -34.2324791 1.177428603
1 -41.03971863 -36.11828232 5.1364398
3 -41.39137268 -34.58008957 5.277879715
1 -41.28324509 -36.50236893 8.142464638
3 -42.49382782 -35.32570648 8.266217232
1 -41.69205856 -36.87429428 11.50692558
3 -43.29389954 -36.4471817 11.40409946
1 -42.06357574 -37.19366074 15.41505337
3 -43.53938675 -37.78258133 15.04808521
1 -42.45895386 -37.84912109 18.95274734
3 -43.13005066 -39.16802216 18.68810463
1 -42.53957367 -38.4010582 22.24484253
3 -42.36577988 -39.90041733 22.27974129
1 -42.72829819 -38.89083099 25.021595
3 -41.44303131 -39.92800522 25.00489426
0 -43.41527939 -39.91631699 29.37704659
2 -42.02584076 -40.40723419 29.44388008
4 -38.29305267 57.40839767 45.63151169
4 -34.42966461 56.96705627 48.87831879
4 -35.51722336 57.16060638 54.92582321
4 -37.39665222 51.92508316 53.60444641
4 -39.14928055 48.58670425 57.84001541
4 -43.03075409 45.62885284 61.19141388
4 -47.03661728 44.00654602 62.25935745
4 -51.12854385 41.14081192 61.9665451
4 -53.3707695 36.26209641 60.74210358
4 -32.9805336 -36.47215271 57.45500946
4 -36.79757309 -37.78829575 60.73989105
4 -42.01666641 -37.52177429 59.52428055
4 -47.70543289 -38.54213333 58.46510315
4 -50.72385788 -40.41997528 54.00104904
4 -52.74645996 -44.09828949 51.49438477
4 -51.64268494 -44.73640442 45.9848175
4 -47.85012817 -49.16585541 46.64477158
4 -43.14797211 -52.59159088 46.20005035
4 32.818367 -21.71824074 59.53477097
4 33.33335876 -16.58270836 59.66957855
4 33.26627731 -11.5681324 58.46333313
4 36.62743759 -14.31552601 54.68570709
4 40.10300827 -17.22125053 51.93161011
4 42.69203949 -19.12040138 47.55675125
4 44.85355759 -22.58472824 44.53807831
4 45.6008606 -24.89850235 39.90275192
4 44.27770996 -29.0847683 35.61091232
4 32.7024231 40.07992172 64.38482666
4 29.21954155 39.26825714 69.52332306
4 31.77907372 42.50581741 73.51535034
4 32.08150482 47.30107117 72.85293579
4 32.34953308 51.68452454 68.87493134
4 32.07283783 54.86667633 63.96909714
4 33.33231735 52.95264435 59.04470825
4 29.89666367 51.62971115 54.14970779
4 26.51578522 51.73761368 49.99663544
4 57.24933624 -27.25918961 26.23998642
4 62.8643837 -28.53389549 26.573246
4 62.34537125 -31.46750641 29.81843567
4 59.63806915 -35.80715561 33.09505081
4 57.24133301 -38.35317993 36.34230804
4 55.49530792 -43.39122772 34.30654526
4 51.11550522 -47.80793762 34.12619781
4 49.46525955 -44.85303879 38.04156494
4 44.13095474 -45.37958908 40.63583374
4 68.18643188 -26.76848793 -30.25045204
4 68.49252319 -24.31040764 -35.70149994
4 63.52002335 -25.83239555 -38.81983566
4 59.31203079 -27.58203316 -40.74432373
4 57.56336212 -24.39512062 -43.80542755
4 52.77464294 -27.23059273 -42.1829071
4 47.83361816 -27.14172554 -43.69407654
4 43.332901 -26.75643539 -41.06559753
4 39.87498093 -22.99423599 -42.49958801
4 60.22104263 33.42456818 -38.76333618
4 62.20295715 37.95206451 -41.25638199
4 59.37215042 41.01535416 -44.50937653
4 59.61496353 46.57426453 -42.93881607
4 57.94507217 49.89117813 -38.38051987
4 55.29649353 54.03970337 -35.00350571
4 54.4643898 58.12208557 -32.7371788
4 55.45435333 57.1179657 -37.14464569
4 50.38253784 58.40471649 -39.33568192
4 59.36592102 31.93533897 40.11180496
4 57.66388702 29.7253685 44.24689484
4 56.12372971 25.06637383 47.42882156
4 51.7469635 22.49564552 47.99010086
4 46.5582695 21.718153 45.89886475
4 48.95869446 25.1656189 49.98410797
4 52.3445816 27.77194786 54.52243423
4 47.71583557 31.45430183 56.39883041
4 43.07911682 35.20801163 56.26065445
4 36.68781281 64.88760376 -33.52213669
4 34.50575256 67.63634491 -36.32936096
4 30.06503868 64.20250702 -38.25256348
4 29.19800568 60.85721207 -42.23206711
4 27.85556412 56.02379608 -42.27487564
4 24.29056549 53.7267189 -46.23229599
4 26.24209785 53.23858643 -50.41935349
4 31.51529121 52.63241577 -49.43770981
4 33.55496597 48.37405396 -46.94286346
4 -25.01678276 49.38051224 -53.85749817
4 -22.47569466 53.76712418 -51.87785339
4 -21.19142723 58.88614273 -50.45068741
4 -22.29540825 62.27586746 -46.04530716
4 -25.72797585 65.76835632 -46.11132431
4 -28.73349571 66.87753296 -41.71920395
4 -33.74966812 64.1598053 -39.62705612
4 -35.25661469 59.55558014 -39.19349289
4 -36.8088913 55.20130539 -42.65145493
4 -43.87482452 41.40803146 31.42423058
4 -42.19283676 42.73299026 26.95223236
4 -40.98325729 46.47708511 22.39687157
4 -40.90159225 50.87624359 20.30646706
4 -38.2351799 54.78798676 17.02540016
4 -35.94396591 59.56429291 19.81463623
4 -38.29066086 62.34819412 22.89989471
4 -41.40716171 63.06377792 27.03609467
4 -41.89106369 58.85133362 31.52982521
4 28.63785934 57.04853439 36.26964188
4 27.38850021 58.39459991 31.85142136
4 31.84892082 56.86714554 27.59275246
4 35.28662491 52.57564163 25.60028839
4 38.84508896 51.00723267 21.22799301
4 37.14126205 47.5890274 24.24621582
4 40.69579697 48.19731522 28.61217117
4 44.94178391 43.99183655 29.05299377
4 48.23192215 42.76315689 33.2015419
4 -47.7704277 55.27929688 -38.02350616
4 -52.74298096 53.93931961 -37.7927475
4 -57.03985596 51.60881424 -39.68298721
4 -61.612854 49.46285629 -42.20426941
4 -62.66485214 46.33853912 -39.72703934
4 -62.52363586 40.78630447 -40.35224915
4 -65.16143036 37.19908142 -42.10894394
4 -65.10958862 33.23280334 -45.93086243
4 -59.99196243 30.51681709 -45.09604645
4 -59.23308563 -46.33709335 -44.9336319
4 -56.16734695 -48.43774414 -49.16129684
4 -51.63260651 -48.76995087 -53.28160477
4 -47.79921722 -46.9980545 -56.12199783
4 -45.33879852 -45.1219368 -59.92743301
4 -42.62081528 -46.88407516 -59.07987976
4 -38.2189064 -43.51023865 -58.11333084
4 -35.14858627 -37.93977356 -57.70742416
4 -30.44273567 -37.44395065 -54.40906525
4 -46.43630219 -31.78402328 35.31179428
4 -48.52405167 -33.89660645 39.01597977
4 -47.76006317 -28.62701225 39.70044327
4 -45.28650665 -26.84620285 35.74557495
4 -48.66375351 -27.65359879 40.41444397
4 -47.61536026 -24.81142807 45.8142128
4 -44.96901703 -24.03039551 50.48154449
4 -41.72678757 -27.31517029 51.28283691
4 -38.96688461 -30.68367958 49.30392456
4 -62.83945084 32.07247925 53.87593842
4 -66.20841217 28.15847397 54.23636246
4 -71.29315186 26.76304054 52.90745163
4 -71.64339447 31.10825729 48.88372421
4 -67.53122711 28.38513756 45.66237259
4 -64.57097626 27.5864296 40.61285019
4 -58.88623428 26.25034332 41.42678452
4 -53.65107727 26.15185547 40.98966599
4 -51.08257675 28.37715149 37.44960785
4 -46.99824905 34.23230362 -45.80950546
4 -46.11042786 39.42591858 -48.42059708
4 -42.97914124 41.62848282 -51.73131943
4 -43.57468414 46.93072891 -54.57920456
4 -44.57206345 41.77968216 -55.47946548
4 -43.91035461 38.91175461 -60.05601501
4 -42.25936508 36.45020294 -64.8862381
4 -36.46004486 36.59991074 -63.22400284
4 -34.26205063 35.98894882 -57.68186569
4 34.09550095 36.46814346 -50.17339325
4 29.31192589 35.24839401 -52.97756195
4 29.4889164 31.94425583 -57.78196716
4 33.83621979 32.56174469 -59.64799118
4 39.49560547 33.220047 -61.77689743
4 43.37272644 28.43912506 -60.92879105
4 45.5120697 27.15405083 -56.91096115
4 43.63511658 26.65307808 -51.54670715
4 48.20740891 26.35359383 -47.4739418
4 31.92148972 -29.06885338 -49.42580032
4 33.76026154 -25.14333344 -53.46931076
4 36.12614059 -26.36458397 -55.06753922
4 40.2763443 -28.15825462 -58.06626511
4 41.30334473 -32.47716904 -59.83171463
4 43.56375885 -36.76271439 -62.78268814
4 41.21395874 -41.39296341 -61.46741867
4 38.38376999 -46.21273804 -59.18928909
4 32.11172104 -46.56858444 -58.6019249
4 -44.92567444 -18.54903412 -55.61550522
4 -50.54211426 -19.15508652 -58.07518768
4 -54.30467224 -18.15183258 -61.80603027
4 -54.92475128 -17.72241211 -67.16616058
4 -58.26949692 -21.78622627 -64.91098022
4 -59.27119064 -23.50554657 -59.32439804
4 -61.85221863 -26.3196888 -55.47006989
4 -63.33987808 -27.35894966 -50.68072891
4 -65.29426575 -32.39492035 -48.83098602
4 -32.17211914 -47.37497711 -47.57933807
4 -34.7840271 -52.68180084 -49.04460526
4 -40.13526154 -53.34522629 -47.23987961
4 -43.85696411 -51.65138245 -44.15778732
4 -44.08806992 -48.79257965 -40.10324097
4 -45.12737274 -43.61388016 -42.26844788
4 -46.06248474 -39.16353607 -45.55710983
4 -42.56311035 -34.60055542 -47.5820961
4 -40.69174576 -31.36870384 -50.5675087
4 35.55977249 -54.4188385 -42.94106293
4 40.13025284 -53.63849258 -40.27095795
4 39.45386505 -57.75491333 -35.85222626
4 41.89530182 -53.98849106 -31.81118774
4 44.54264069 -50.20962524 -31.08692169
4 49.32374954 -49.32050323 -29.91547775
4 52.66040039 -44.3003273 -29.9870491
4 55.05079651 -43.46334457 -28.61282539
4 57.08213425 -39.58713913 -29.77811241
4 35.14266205 -55.7382431 39.01364136
4 33.84401703 -59.26694107 42.46641541
4 35.51901627 -57.45983887 46.73288345
4 38.0810318 -53.33951187 49.24878693
4 35.49817657 -48.44089508 52.00866318
4 31.9279232 -51.73003769 55.70530319
4 32.42211533 -46.87918091 60.29584122
4 35.68898773 -42.2432785 61.09887314
4 34.76802444 -36.03884125 62.23596573
4 -37.65649033 -64.75753784 42.55482101
4 -37.98463058 -66.53647614 36.98564529
4 -38.70428848 -65.58877563 31.06381416
4 -38.50152969 -61.25950623 28.460289
4 -41.51726151 -61.11152267 23.69871712
4 -44.95314407 -56.82807541 23.50097847
4 -48.88739395 -52.94597626 24.37515259
4 -53.91743469 -49.44690323 25.00540161
4 -50.75609207 -46.07523727 27.73885345
