0 25.63251877 48.3799324 43.92636871
2 26.85611916 47.59647369 43.86389542
1 22.71029854 45.69462204 42.20173264
3 23.36419868 44.69788361 43.18300629
1 20.35041618 43.34962845 40.80321884
3 20.60976219 42.4507103 42.04942322
1 17.84679604 40.79769897 38.87106705
3 17.39845848 40.47314835 40.26636124
1 15.04370499 38.99379349 36.97531128
3 14.10364151 39.38295746 37.98928452
1 12.22840309 37.61294937 35.81188965
3 11.48591805 38.93519592 36.23976135
1 8.751573563 36.37829208 34.14863586
3 8.400159836 37.94516373 34.03997421
1 5.373003483 35.65653229 33.43764114
3 5.447461605 36.66498184 32.27073288
1 2.217058182 35.03945923 32.65803528
3 2.374999046 35.33491516 31.03870964
1 -1.659820199 34.91451263 32.11779022
3 -1.690376997 34.08221054 30.79940224
1 -5.345835209 35.17362595 31.70864296
3 -5.594127655 33.90763474 31.01502419
1 -9.134760857 36.40898132 31.33586121
3 -9.627678871 35.02451706 31.55490303
1 -12.07070923 36.95012665 31.17848206
3 -12.54521847 35.82846832 32.51454544
1 -15.24943256 37.8843689 30.97728348
3 -15.41939354 37.86407852 32.55020142
1 -18.16044617 39.44875717 30.92739296
3 -17.61172867 40.13813019 32.13492584
1 -21.02225685 41.43409348 31.27468109
3 -20.26147652 42.3409996 32.10862732
1 -23.67172432 43.05181885 32.17926407
3 -22.85562897 44.26785278 32.27868271
1 -25.9544239 44.93401337 33.25196457
3 -25.5903244 46.18308258 32.49211121
1 -28.7322998 46.983078 34.53114319
3 -28.96400261 48.04663849 33.22289658
1 -31.09770203 49.53665161 35.87491608
3 -31.6405201 49.79212952 34.24128723
1 -33.49013519 51.61549759 37.35354614
3 -34.4113884 51.11724091 36.15187073
0 -36.54621506 54.54735184 38.92838287
2 -37.956604 53.92548752 38.79700851
0 32.54084015 -33.96300888 58.12774277
2 33.58947372 -33.498703 57.20088196
1 28.5778141 -34.294384 55.5819664
3 29.23985863 -34.86444092 54.45793533
1 24.98586082 -34.78862381 54.08140182
3 25.600914 -36.01015472 53.63475037
1 21.68559265 -35.20650864 52.77359772
3 21.8984375 -36.53658676 52.94662857
1 18.25393486 -35.99262238 51.16493607
3 18.12448883 -37.15201187 51.9942627
1 15.42229843 -37.04016113 49.67607498
3 15.02332306 -37.5114212 51.03744125
1 12.81186295 -38.1178894 48.58288956
3 12.01498127 -37.60840225 49.88473511
1 9.491347313 -39.13500977 47.26464081
3 8.851783752 -38.27355957 48.28356552
1 6.048615932 -40.08720779 46.03468323
3 5.814597607 -38.65285492 46.07304001
1 3.237747669 -40.90150833 44.87253189
3 3.069641829 -39.32247925 44.30438995
1 0.2867636085 -41.20288849 44.35152054
3 0.7779077888 -40.86766052 42.75708771
1 -2.379671812 -42.43708801 43.0977211
3 -1.761966705 -42.28114319 41.83543015
1 -5.402598858 -43.83840179 41.86368561
3 -4.684234619 -44.53814697 40.86647797
1 -8.43025589 -45.39706421 40.60427475
3 -7.687752724 -46.55291748 40.34849548
1 -11.28827 -46.87059784 40.1016655
3 -10.83727169 -48.07542801 40.79830933
1 -14.46735573 -48.2098465 39.82444382
3 -14.34299755 -48.55057526 41.31213379
1 -17.96320152 -49.51174545 39.5345192
3 -18.33864784 -49.33615112 41.24491119
1 -21.84481049 -50.76903534 39.28905869
3 -22.23348618 -49.52562332 40.39479065
1 -25.56653404 -51.6983223 38.93503189
3 -25.6657486 -50.29877472 39.26682663
1 -28.87870979 -52.20198822 39.18572235
3 -29.30515099 -50.73355865 38.7244339
1 -31.71049309 -52.39023972 39.6814003
3 -32.14592743 -51.65837097 38.38674927
0 -36.09519958 -53.10403824 40.13694382
2 -36.03887939 -52.93997574 38.49790573
0 30.23580742 -50.35247421 -49.86771011
2 30.10676956 -49.53775024 -48.72254181
1 26.32671928 -48.29081726 -49.24730682
3 26.88303375 -47.00841522 -49.22586441
1 23.62185287 -46.81316376 -49.03292084
3 24.37420654 -45.57696915 -49.70935822
1 20.78487968 -44.96399307 -48.34543228
3 21.02910233 -44.23892975 -49.71337128
1 17.76002693 -43.70723724 -48.1842804
3 17.6444931 -43.53006363 -49.69581604
1 14.97617149 -41.85779572 -47.86893082
3 14.17708492 -42.38608932 -49.1631813
1 12.47054577 -39.78092575 -47.56869125
3 11.43883228 -41.15101242 -48.00611877
1 9.260022163 -36.85439682 -47.27851868
3 8.654065132 -38.0569191 -46.74781799
1 6.829502583 -35.3187294 -46.66580963
3 6.706942081 -35.950634 -45.47900009
1 3.962334394 -33.53791809 -46.51336288
3 3.909374952 -33.62790298 -44.88647842
1 0.8502358794 -32.23960495 -46.13814926
3 1.28431797 -31.21491623 -44.8444519
1 -3.099541426 -30.95736504 -46.25553513
3 -2.696084738 -29.44747353 -45.90218735
1 -6.640879631 -30.16397858 -46.77135849
3 -6.328189373 -28.53055191 -47.04075241
1 -10.02053547 -29.43061829 -47.48546982
3 -9.564082146 -28.56357574 -48.89579773
1 -13.66727829 -28.64490318 -47.83575821
3 -13.47955036 -28.64684105 -49.27905273
1 -17.45280838 -27.13039207 -48.45714569
3 -17.72168922 -28.00685883 -49.71835327
1 -21.23183441 -26.21996689 -48.93164062
3 -21.5083828 -27.59508896 -49.26572418
1 -24.6866951 -24.78387451 -49.38464737
3 -25.3813324 -26.16170883 -48.8677597
1 -27.74065971 -23.65733147 -50.17463684
3 -28.01829529 -24.50001907 -49.07632446
1 -31.0618782 -23.03100204 -50.91020584
3 -31.32841301 -22.86143494 -49.48618698
1 -34.40752029 -21.83444405 -51.68599319
3 -34.26750183 -21.02284622 -50.18308258
0 -39.7492981 -20.34406662 -52.27040482
2 -39.45356369 -19.18327332 -51.59355927
0 28.69665909 -29.3023262 -35.97699738
2 27.75719452 -29.7760067 -34.97898102
1 27.91746712 -25.06104088 -35.09661865
3 27.63582039 -25.39936829 -33.69379425
1 27.60507202 -21.68936157 -34.3707962
3 28.502985 -22.08403206 -33.07848358
1 27.29433441 -18.36297417 -33.58615494
3 28.58595467 -18.266819 -32.94594955
1 27.07561493 -15.05377197 -32.77090073
3 28.45670509 -14.922925 -33.03941727
1 26.83413506 -12.11214828 -32.04961014
3 27.77142525 -11.86657524 -33.2288208
1 26.49121857 -8.309167862 -31.47648621
3 26.46014023 -7.90596962 -32.91240692
1 26.76779938 -4.566362858 -30.6420269
3 26.12294769 -4.198837757 -31.88638115
1 27.09700775 -0.6745428443 -30.10556221
3 25.68680573 -0.4487966597 -31.05621338
1 27.56387138 2.377203465 -29.95715714
3 26.10830498 2.911313057 -29.88037491
1 28.68445015 6.184550762 -30.03725815
3 27.52919197 6.64399147 -29.22604752
1 29.86818695 9.359275818 -30.20627213
3 29.24187469 9.695835114 -29.08287621
1 31.6473217 12.66658306 -30.50090599
3 31.80958366 12.88217926 -28.92050552
1 34.06967163 15.42045403 -30.82691002
3 34.98206711 14.80293846 -29.49728012
1 36.62900162 17.56507301 -31.5453167
3 37.69907379 16.40480804 -31.06809425
1 39.70908356 19.41828156 -32.84121704
3 40.18639755 17.9889946 -33.24874115
1 42.24706268 21.45519638 -34.24108887
3 42.42489624 20.41732597 -35.50282288
1 45.0710144 23.11043739 -35.74504471
3 44.59568024 22.75797844 -37.19719696
1 48.08845901 25.00453186 -36.73483658
3 47.55612564 25.48241425 -38.10648346
1 50.72137833 26.34254456 -37.59750366
3 49.96386337 27.22262955 -38.36320496
1 53.44324112 28.19305229 -38.52457809
3 52.44792557 29.45235062 -38.55722809
0 56.88472366 30.80820274 -40.42176437
2 56.88234329 31.82175446 -39.58794785
0 37.32165146 40.32460785 -41.37417221
2 38.12423706 39.63190079 -40.68312836
1 33.32887268 39.0752449 -38.77922058
3 34.10306931 39.46165848 -37.38914871
1 30.99721718 38.65950394 -37.02742767
3 31.30409241 39.11411285 -35.8275528
1 27.17424583 37.37610626 -35.29609299
3 26.94894028 38.95846558 -34.52972412
1 23.81092262 35.8708992 -34.19135666
3 23.19512558 37.28980637 -34.37052917
1 20.65739059 34.48428726 -33.50418854
3 20.14690781 35.28160858 -34.55795288
1 17.43052864 33.40097809 -33.28567123
3 17.28371239 33.51600647 -34.81965637
1 13.99759102 32.24690247 -33.38036346
3 13.99787521 31.96180725 -34.70359802
1 10.05903149 31.03835487 -33.79860687
3 10.4398365 29.76366043 -34.44408798
1 6.825020313 29.81766129 -34.4219017
3 7.415713787 28.51251793 -34.41181564
1 2.803471804 29.37107849 -35.2117424
3 2.797549248 28.12186813 -34.50845337
1 -0.314840287 28.92826271 -35.84889984
3 -0.522898674 28.36092377 -34.54804611
1 -3.592993498 28.7102356 -36.69366455
3 -4.175220966 29.24487495 -35.0626297
1 -6.829492569 28.74996376 -37.68297577
3 -7.398764133 29.78477097 -36.5978508
1 -9.966688156 28.60814285 -39.26773071
3 -10.11082363 30.25542068 -39.00386047
1 -13.00599575 28.86538696 -40.74079132
3 -12.66696453 30.28764915 -41.2664299
1 -16.44319344 29.17593956 -42.34346771
3 -15.60562992 29.84419632 -43.28992844
1 -19.29605293 29.92380524 -43.57391357
3 -18.62411308 30.16988945 -45.18229675
1 -22.16259766 31.19216537 -44.82331085
3 -21.93149567 30.50340843 -46.16468048
1 -24.9649868 32.83548737 -46.36445999
3 -25.11355209 31.63961792 -47.22625351
1 -27.44774818 34.78928375 -48.11289978
3 -28.43657112 33.41146088 -48.34477615
0 -30.61688614 37.39735031 -49.90732574
2 -31.51055527 36.82130432 -49.06559372
0 -58.37428284 -38.41134644 -43.63787842
2 -57.05627823 -39.69374084 -42.44624329
1 -58.36848831 -34.72106934 -40.83322906
3 -56.60236359 -35.05024719 -40.79732513
1 -57.84963226 -32.15475464 -38.52994919
3 -56.64897156 -31.8790741 -39.0486145
1 -56.8643837 -29.54825592 -36.1495285
3 -56.07964706 -29.19833183 -37.39186478
1 -55.94873047 -26.76320839 -34.64006042
3 -55.74451447 -25.9682312 -36.15642548
1 -54.6552887 -23.36799049 -33.27395248
3 -55.1147995 -22.73445129 -34.18860245
1 -53.10459137 -20.21611214 -32.7618866
3 -54.30598831 -19.76558113 -33.1807518
1 -51.6314888 -17.34608269 -32.18590546
3 -53.05504227 -16.51980019 -32.0777092
1 -50.29780579 -14.35126495 -32.18081665
3 -51.37929153 -13.80007648 -31.02680397
1 -49.16500092 -11.49503803 -32.05728149
3 -49.45855713 -11.11205578 -30.58515739
1 -48.05662537 -8.020329475 -32.2580452
3 -47.45988083 -8.023294449 -30.75142479
1 -46.91783142 -4.36657238 -32.51931763
3 -45.67732239 -4.465016842 -32.01849747
1 -46.58594894 -0.8633369803 -32.98567581
3 -45.17068863 -0.8398874402 -33.07831192
1 -46.32855606 3.049119473 -33.42789459
3 -44.86148071 2.91398406 -34.4419632
1 -46.47662354 6.681861877 -33.81139374
3 -45.88850784 6.535737038 -35.26371384
1 -47.26610947 10.50135803 -34.29478073
3 -47.24100113 10.20830727 -35.62406158
1 -47.33976746 13.80146885 -35.17205811
3 -48.51905823 13.43380451 -36.20242691
1 -47.93440247 17.59212303 -35.36125183
3 -49.57948685 17.40742874 -35.68384933
1 -48.88296509 20.96318245 -36.36760712
3 -50.12640381 20.87733841 -35.75015259
1 -49.07185745 24.54558754 -37.50193024
3 -50.36009979 24.73562622 -36.25716782
1 -49.352005 27.9118042 -39.02852631
3 -49.47084427 28.54684258 -37.46729279
0 -50.68675613 32.52251053 -40.48519897
2 -49.87845993 33.4223175 -39.18980026
0 -42.87635803 53.22769928 -36.70627975
2 -42.3203392 52.5406189 -37.57123947
1 -42.03421402 50.30487061 -33.66320419
3 -40.88920212 50.2638588 -34.11623764
1 -41.05503082 47.84863663 -30.89012337
3 -39.44594955 48.36399841 -30.81135941
1 -40.30231857 45.25254059 -28.21656609
3 -39.17710495 46.35752869 -27.61338043
1 -39.80850601 43.34486389 -26.09119797
3 -39.84005356 44.57527542 -24.96905708
1 -39.57270432 40.69871902 -22.78700066
3 -40.383358 41.83687973 -21.47018623
1 -38.95166397 38.68198013 -19.84928703
3 -40.2011261 39.15561676 -19.65351295
1 -39.00729752 36.73986053 -16.43053055
3 -40.42661285 36.53544235 -16.76107216
1 -39.29294586 35.05541611 -13.15535927
3 -40.35308838 34.08646011 -13.94700527
1 -39.88810349 33.86380005 -9.566164017
3 -40.15034866 32.2519722 -9.982769966
1 -39.80109406 33.22706223 -5.438394547
3 -39.24956894 32.15377808 -5.658717155
1 -40.01720047 32.33544159 -1.719489932
3 -38.45880508 31.55644226 -1.444131136
1 -40.3303299 31.961483 2.157579899
3 -39.02869415 32.22872925 2.014643669
1 -40.93006134 31.41825676 5.539917469
3 -40.11001205 32.8005867 5.856147289
1 -41.48653793 30.74713516 8.862130165
3 -41.71891403 32.28438568 8.99454689
1 -42.43095016 30.03177643 12.44968605
3 -43.53013992 31.06634331 12.19705105
1 -42.78380203 29.76301384 15.61598873
3 -44.27248764 29.97750854 15.47576714
1 -43.07529831 29.67309952 19.13673019
3 -44.37413788 29.33416557 19.15628433
1 -43.28817368 30.07980347 23.02260208
3 -44.23431396 29.04621696 23.07517242
1 -43.99252319 30.36466026 26.5537262
3 -44.34571075 28.87617493 26.37238312
1 -44.7562561 30.94691277 29.51802444
3 -44.03202057 29.60801888 29.95159531
0 -46.1228981 32.74134445 33.65729141
2 -45.28360748 32.54137039 34.79664993
0 -30.32877159 -27.8984623 57.57535172
2 -29.40337753 -28.61071777 56.58598709
1 -28.66661453 -24.04649162 55.75683594
3 -28.77849579 -24.51851273 54.36246872
1 -27.3183136 -20.86881447 54.74748611
3 -28.26148987 -20.88462067 53.39658737
1 -25.29788399 -17.19093895 53.59684753
3 -26.70281601 -16.67458916 53.10923386
1 -24.41451263 -14.84830093 52.81475067
3 -25.61624527 -14.13290024 52.92507553
1 -23.41180992 -11.78289986 51.60380173
3 -24.26636887 -11.18432426 52.5927124
1 -22.60914803 -8.366889 50.38941574
3 -22.69824219 -8.057008743 51.78671646
1 -22.8581028 -4.914288044 49.29615784
3 -22.09862709 -5.013171673 50.52116394
1 -23.49285507 -1.121292233 48.26142883
3 -22.32861328 -0.4094273746 48.9502449
1 -24.77216911 2.001850843 47.97613525
3 -23.33674622 2.675744772 47.75086975
1 -25.93658829 4.491203785 47.87089539
3 -24.84222603 4.960944176 46.92402267
1 -27.66909981 8.520068169 47.78335953
3 -27.3220005 8.676870346 46.27797699
1 -29.7050705 11.41117287 48.19729996
3 -29.98171043 11.63617229 46.90779877
1 -31.21569252 14.02736568 48.79367828
3 -32.20249176 13.59524059 47.54217911
1 -33.45843887 16.68478394 49.36263657
3 -34.47638321 15.87050819 48.91219711
1 -35.88368607 19.21527672 49.93470764
3 -36.85733795 17.90252876 50.17698669
1 -38.64657593 21.57163239 50.74874878
3 -39.41888428 20.16647911 51.75915527
1 -41.04624939 23.05952454 51.22120285
3 -41.02713013 22.523386 52.68088531
1 -43.8606987 24.72324181 52.26586533
3 -43.29718018 24.83385086 53.75385666
1 -46.63897324 26.8877182 53.7263298
3 -45.51307678 27.43155861 54.46874619
1 -48.45895004 28.75808716 54.71194077
3 -47.61017609 29.76410294 54.49116516
0 -51.8666687 31.69429398 55.53386688
2 -51.23911285 32.47821045 54.31297684
0 41.11406326 55.88955688 -31.40581512
2 39.57671738 55.37186813 -31.81014252
1 41.78232574 52.7473259 -28.22387695
3 41.06677246 51.83198166 -29.46922493
1 42.33907318 50.09771729 -26.04543304
3 42.48659515 49.10456467 -27.0615406
1 42.42952347 47.0930748 -23.6751461
3 43.8707695 46.6750145 -24.44854355
1 43.12713623 44.08692551 -20.89784622
3 44.96226501 44.54492569 -21.1713028
1 43.54307938 42.20320129 -18.03833389
3 44.67308807 43.4428978 -17.37464142
1 43.39793777 40.87305069 -15.40292358
3 43.64942932 42.20431519 -14.60313129
1 43.74996567 39.5108223 -12.09156513
3 42.88935089 40.88160706 -11.44378281
1 43.55131149 38.16462708 -9.16422081
3 42.28852463 38.7129097 -9.012246132
1 43.46191025 37.0529213 -5.978974819
3 41.92063141 36.96117783 -5.939518929
1 43.69973755 36.71685791 -2.009179115
3 42.77128983 35.433918 -1.856143355
1 44.38591003 36.09452438 1.384255052
3 44.1116333 34.63804245 1.430660248
1 45.04894257 36.07842636 4.626810074
3 45.76670837 34.7899704 4.432171345
1 45.74122238 36.24918365 8.155502319
3 47.0174942 35.77668381 7.907303333
1 46.62070084 36.73036957 11.82111549
3 48.05432129 37.26401901 11.21746159
1 47.54074478 36.56422043 15.57040596
3 48.40240097 38.01195526 15.40317345
1 48.32617569 36.97828674 18.79980278
3 48.48209763 38.49797058 18.92644691
1 48.97037506 36.79188538 22.05226135
3 48.27386856 38.01618958 22.19243431
1 49.52882767 36.6980629 25.13645363
3 48.28108597 37.52594757 25.32978821
1 49.97571945 36.69532394 28.49293709
3 48.32112122 36.5831871 28.46579361
1 50.43076324 36.6853714 31.4188633
3 49.19825363 35.68408585 31.65089989
0 50.80358505 37.23907471 35.48189545
2 50.65504456 35.67195892 35.54136276
0 35.81830597 33.7274437 58.25185394
2 35.30402374 35.20191193 58.07980728
1 33.42511749 31.9186573 54.73676682
3 33.85511398 33.21712112 53.92970276
1 31.8685379 30.07756424 52.24433899
3 32.93969727 30.54556465 51.36066055
1 30.54414749 28.3007679 49.23680115
3 32.04203796 28.22462845 48.95714188
1 29.90208244 26.53853607 46.3801651
3 31.05426407 25.75247192 46.84726334
1 29.54888916 24.33060455 43.60464478
3 30.13245201 23.09851837 44.44195557
1 29.86370468 21.90225983 40.95847702
3 29.25457764 20.86370277 41.93050766
1 30.38573456 19.65190315 39.23771667
3 29.16668701 18.98411751 39.87392426
1 31.01143265 16.21449852 37.39877319
3 29.29262543 16.16296959 36.99623489
1 31.3231678 13.59329224 36.1698761
3 30.27165794 13.61966896 35.22197723
1 31.99809647 10.13550758 34.78150558
3 31.39043808 10.34496784 33.42554474
1 32.81943893 6.363494396 33.91515732
3 33.33061218 6.905040741 32.53184891
1 33.52378464 3.364027739 33.28711319
3 34.71860123 3.564150333 32.33639526
1 33.85124969 0.4182311893 32.4462738
3 35.27557373 0.655538559 32.324543
1 34.88713074 -3.348476887 31.73412704
3 35.77193069 -3.089054108 32.41187668
1 35.55443954 -6.064171791 31.16496468
3 36.37863922 -5.995055199 32.47104645
1 37.5964241 -9.535217285 30.69109154
3 37.68100739 -9.738887787 32.21582794
1 39.44150543 -12.14976311 30.42081833
3 38.51980591 -12.64682961 31.32723618
1 41.28121185 -14.94965935 30.58879852
3 40.17240143 -15.85484791 30.87729836
1 43.13692856 -17.87575722 30.26876831
3 41.56111908 -18.6334095 30.10838127
1 45.19202042 -20.53697395 29.71507454
3 43.99899292 -21.04179001 28.68887711
0 48.11013412 -23.9182663 29.31760025
2 48.05275345 -24.20312309 27.61233139
0 36.6288681 -45.0471611 38.59716797
2 36.28761673 -43.97487259 39.05558395
1 34.65769577 -44.32409668 34.42753601
3 35.34778976 -42.95391464 34.18445969
1 33.24870682 -43.90726089 31.11574745
3 34.30306244 -43.04862595 30.97489738
1 31.9151535 -43.23497772 27.63803864
3 33.44618988 -43.23780441 27.34276199
1 31.36853981 -42.89686584 25.12305069
3 32.64385986 -43.58636856 24.70601845
1 31.22791672 -42.0428009 21.2947979
3 32.06876373 -43.33934021 20.97741127
1 31.41366959 -41.50077057 18.27761459
3 31.32975197 -42.84251022 17.94805145
1 31.70046234 -40.25455856 15.11961079
3 31.25873947 -41.42131805 14.23392582
1 33.05833054 -38.91827011 12.05488968
3 32.1276474 -39.38999176 11.0233326
1 34.27671051 -37.18632889 9.226233482
3 32.96720505 -37.13963699 8.495932579
1 36.30605698 -35.33209991 5.963879585
3 35.01890182 -34.46137238 5.751244545
1 38.11706924 -33.53996658 3.09434557
3 37.18760681 -32.3159256 3.292064905
1 38.79245758 -32.31121445 0.3861342072
3 38.70016098 -30.82136726 1.202508688
1 39.87213898 -30.91678619 -1.928912401
3 40.41597366 -29.85163116 -0.8482182622
1 41.41424179 -29.06579399 -4.882570267
3 42.54691696 -28.83118629 -4.042620659
1 43.47616196 -27.5351162 -8.13270092
3 44.79749298 -27.95081329 -7.534028053
1 45.29030991 -26.55953217 -10.80407906
3 46.13392639 -27.98104668 -10.51880455
1 47.01628876 -25.55884552 -13.11723042
3 46.92629242 -27.27290154 -13.59098816
1 48.77901077 -24.82588577 -16.42005539
3 48.09052658 -26.16183853 -17.14048767
1 50.49438858 -24.83244514 -19.71180916
3 48.83253479 -25.43291283 -20.19359016
1 51.49786377 -25.11364365 -23.10308266
3 50.17622757 -24.92235565 -23.78790474
0 53.57470322 -25.77363014 -27.27744102
2 52.86009979 -24.64693642 -28.0388546
0 -27.25947571 -41.99330521 -39.79006577
2 -25.72740555 -41.5303688 -39.23160553
1 -28.67311478 -40.59176254 -36.36270905
3 -28.02478218 -39.43760681 -36.37700272
1 -30.33939934 -39.69181061 -32.83293152
3 -30.28646469 -38.07337952 -33.31945801
1 -31.49839783 -38.54647446 -30.07226562
3 -32.00102997 -37.2681694 -30.80234909
1 -32.43076706 -37.5574913 -27.63446999
3 -33.67158127 -37.14704895 -28.50874329
1 -33.65763092 -36.94813919 -25.04064178
3 -35.1534996 -37.08597946 -25.62826538
1 -34.70155334 -35.76852036 -21.70845413
3 -36.05472946 -37.02956009 -22.02970695
1 -35.95197678 -35.11161423 -18.75752831
3 -36.24352646 -36.74687576 -18.46974945
1 -36.74549484 -35.07439804 -15.42923641
3 -36.32270813 -36.53368378 -15.26416111
1 -37.34169769 -35.10311508 -11.87215137
3 -36.23116302 -35.93877792 -11.84705257
1 -38.03821182 -34.91867447 -9.024231911
3 -36.65251923 -35.09540939 -8.823929787
1 -38.61313629 -35.41678238 -5.683180809
3 -37.34529114 -34.4208374 -5.034959316
1 -39.32765961 -35.84196472 -1.819000483
3 -38.758255 -34.47220612 -1.495935559
1 -40.08873367 -36.79441833 1.415865064
3 -40.30031586 -35.28902817 1.597172379
1 -40.54122925 -37.21601105 4.428927422
3 -41.68737793 -36.23435593 4.57408762
1 -40.93792343 -37.97106934 7.055022717
3 -42.36833572 -37.55696869 7.12443924
1 -41.60640717 -38.28469467 10.67261887
3 -43.15856171 -38.83049393 10.49184513
1 -42.41238403 -38.5403862 14.69756699
3 -43.30147552 -39.80499268 14.54897022
1 -42.77062607 -38.92132187 18.67472839
3 -43.29351807 -40.26501846 18.23194313
1 -42.87869263 -39.73790359 21.97363281
3 -42.68667984 -41.35148621 21.66458893
1 -42.95964813 -40.44691467 25.27779007
3 -42.03943634 -41.74913025 25.56542206
0 -43.30389023 -41.6548996 29.55400085
2 -41.85039902 -42.00193024 29.87383461
4 -36.04771423 56.16226578 48.09648132
4 -37.76736069 54.46892929 53.65079117
4 -35.58630371 53.93297577 58.14522934
4 -37.20841599 51.46675491 63.69902039
4 -41.04462814 49.66947937 65.79556274
4 -45.49159622 49.54507828 63.51384735
4 -48.2859993 44.56908035 63.39786911
4 -51.13022614 39.69816208 65.15524292
4 -51.42269897 34.35533905 65.37490082
4 -30.76877213 -31.06156731 67.14315796
4 -33.94908524 -36.10364532 67.3521347
4 -36.38236618 -41.5220871 65.05441284
4 -37.37983704 -42.95948792 62.24490356
4 -42.41117477 -42.35885239 60.04317474
4 -47.05674362 -45.99851608 60.398983
4 -47.85792923 -48.61230087 55.1776123
4 -44.73526001 -48.15665817 50.69514847
4 -43.64421844 -48.24752426 45.38366318
4 35.63600922 -26.75217628 64.4995575
4 41.52108383 -27.3897686 63.57202148
4 42.3643837 -24.42772484 59.78983688
4 44.93357468 -21.42747879 56.4265976
4 45.29982758 -22.33263969 50.05082321
4 44.72425079 -23.49267197 45.651371
4 42.90851974 -28.64091492 45.99598312
4 40.59343338 -29.73238373 40.73078918
4 42.43106079 -28.01968193 36.69767761
4 33.76076889 29.99484253 66.72919464
4 34.32826233 35.06832886 69.90138245
4 31.19042015 39.84412384 71.57426453
4 31.0839386 45.15973663 69.26937103
4 29.60870552 49.30696106 66.89149475
4 30.90418053 54.62284851 65.31729126
4 31.61285591 57.88798141 61.83646393
4 28.31184959 57.03166199 57.19512177
4 28.23403168 53.47732925 52.23350525
4 57.32781982 -28.92954254 30.72743225
4 57.39468002 -28.22743225 24.86209297
4 58.63156509 -31.7872963 20.27016068
4 57.23986435 -36.92451477 23.21771049
4 55.41209412 -39.66462326 27.03714752
4 57.30873489 -41.04972839 31.95050812
4 54.0216713 -43.28478241 33.13546371
4 49.43738937 -46.17313385 35.14176178
4 46.43783569 -46.88487625 39.79660034
4 62.63805008 -25.84506989 -30.30471611
4 62.16769028 -27.9401989 -35.60319901
4 60.29607391 -30.79901505 -38.8836441
4 56.50271988 -31.76081657 -43.03429413
4 51.62069321 -33.06145859 -45.69747162
4 50.5266304 -33.65830612 -41.11138916
4 46.10011292 -37.28853226 -39.24157715
4 40.42142487 -37.95014954 -37.73072433
4 36.16933823 -37.04527283 -35.58529663
4 65.73537445 28.20725822 -41.51423645
4 69.14292908 31.52586746 -44.79938126
4 67.9640274 37.29993439 -44.06441498
4 66.53393555 40.77163696 -40.69416428
4 61.56399536 43.09032059 -42.60160446
4 58.19562531 47.2387352 -39.5330658
4 54.89590836 47.65056229 -40.38178635
4 50.01595688 51.06744003 -39.52925491
4 47.57258224 56.13587189 -39.33755875
4 58.78896713 43.30636978 37.36694717
4 64.06954193 41.36946869 37.26332474
4 67.74411011 37.88205719 39.29785156
4 64.76454163 34.53962326 43.0603447
4 59.82826996 31.11099815 43.08193207
4 57.08444214 32.96825027 47.11388397
4 53.63692856 33.45428467 49.79629135
4 48.62018967 34.12663269 53.24886703
4 44.46798325 36.16869354 54.6342926
4 36.31895828 63.26655579 -27.57687187
4 32.46473694 63.89234161 -30.51057816
4 30.38532639 63.05820084 -34.82141876
4 29.51838684 61.86923981 -40.75432205
4 32.97071838 57.10804367 -42.68537903
4 36.60192871 55.34695053 -47.15271378
4 37.78492355 54.29713058 -51.71146011
4 41.72168732 51.32133102 -49.42505646
4 38.81240845 49.63432312 -44.433918
4 -27.57189369 46.35947037 -46.10039139
4 -26.47891808 50.82160187 -49.07372665
4 -23.35311317 54.11751938 -51.14750671
4 -26.94734001 57.7388916 -48.07327271
4 -28.56197548 61.6373558 -45.00662994
4 -31.35399246 66.37625122 -45.84716797
4 -34.58983994 69.13041687 -43.9811058
4 -39.52258301 67.69532776 -42.19244003
4 -40.34469986 62.88017273 -39.30185318
4 -49.12850571 42.53539276 31.01361084
4 -46.59061432 46.69865799 27.07271576
4 -46.10658264 47.34329605 23.10988235
4 -44.77038193 51.21291733 20.35033607
4 -42.74103546 55.92574692 18.74744225
4 -44.33470154 60.03973007 21.1019268
4 -41.95766068 62.1955719 26.1783886
4 -41.78844452 65.58049774 30.80993652
4 -40.32292557 63.36801529 35.12313843
4 24.75578117 58.60084915 40.59645462
4 27.2475605 63.22637939 37.91116333
4 31.69703865 59.64486694 37.40048599
4 33.55266571 55.38116455 34.22016907
4 34.90643692 54.37672806 29.18182945
4 36.88793945 48.88197327 29.14555931
4 37.53865051 44.42745972 30.55252647
4 39.48718262 41.68954849 35.16267395
4 44.36383057 44.65711594 36.92416763
4 -52.72675323 51.26988983 -38.99399567
4 -56.78447723 52.88507462 -35.01787186
4 -58.88110352 55.93582535 -38.63818741
4 -61.83274841 52.9029808 -42.03829193
4 -63.86211014 50.52727127 -45.87024307
4 -67.53752899 46.51192093 -44.51548004
4 -65.50431061 40.89664078 -45.69639587
4 -62.22701263 35.87102127 -44.69124222
4 -60.22997284 35.93108368 -40.62837982
4 -63.5086174 -46.61582947 -47.52404785
4 -60.83649063 -49.6356926 -52.09229279
4 -56.71753693 -46.38179016 -54.87860489
4 -52.12744904 -43.5740509 -56.20726776
4 -48.22306061 -41.38009644 -54.70320511
4 -42.67248154 -40.29541397 -55.43131638
4 -39.14928055 -39.08953094 -50.8819809
4 -33.48365784 -40.20998764 -52.28350449
4 -28.62868881 -39.79726028 -48.79510498
4 -47.68237686 -34.95778656 36.00060654
4 -47.5738678 -30.563097 38.37924576
4 -52.5125885 -28.85707474 38.04750824
4 -54.8142128 -30.69842339 39.78243637
4 -53.96671295 -28.23240471 44.8567009
4 -54.63991547 -27.35152054 49.93465042
4 -50.21068573 -27.17910576 54.18948746
4 -45.45646667 -26.53512383 56.18514252
4 -40.03130722 -27.22892761 56.50479507
4 -61.46962738 28.3266964 56.37394714
4 -63.28801346 25.85542679 61.30359268
4 -67.02944183 26.47200584 57.940979
4 -68.94528198 27.0416317 53.06123734
4 -68.45683289 26.14533424 47.41223907
4 -64.1186142 23.68039322 44.35944748
4 -61.25528717 22.20797729 41.00273895
4 -56.47515106 23.85604286 37.48111725
4 -54.77627563 27.82110405 34.87861633
4 -47.97212219 36.71298981 -49.58647156
4 -46.46563721 38.31170273 -55.23766708
4 -48.21460342 42.97153091 -56.33504868
4 -44.86742783 44.53976822 -59.94618225
4 -42.44379044 46.05830383 -65.52428436
4 -39.76878357 45.39526367 -69.91103363
4 -38.9056015 40.17498016 -66.38155365
4 -37.54940414 36.59397888 -63.27023315
4 -35.68013 37.99085236 -58.55941772
4 36.82714081 37.40773392 -50.88323593
4 39.2563858 37.21321106 -56.32424927
4 40.3541069 35.49173355 -59.62203598
4 42.31445312 37.9936676 -64.45680237
4 48.33328247 38.24971008 -65.75359344
4 48.97297287 34.78952789 -62.04666519
4 51.41891479 34.56760788 -58.57736206
4 52.69747162 33.80394363 -52.8900795
4 55.86571884 35.36642456 -48.11301804
4 30.49702454 -30.47707367 -45.88356018
4 28.59160995 -29.7868576 -51.35813522
4 29.07786179 -29.08995819 -56.19765091
4 31.50073242 -32.99332809 -58.65907669
4 33.05162811 -35.93686295 -64.00648499
4 35.70765305 -37.45351791 -62.20946884
4 38.86245728 -42.02827072 -61.14680481
4 40.16385269 -46.55492401 -58.24425507
4 37.18346405 -50.09836578 -56.78386307
4 -44.47945786 -17.62785339 -60.29758835
4 -47.64860153 -12.82522964 -61.58609009
4 -53.07660294 -12.32674313 -62.61867905
4 -58.89346695 -14.38792324 -63.55369568
4 -60.63583755 -19.81134415 -64.05843353
4 -60.99722672 -21.11040688 -59.35629272
4 -57.86800003 -24.96635437 -58.2293129
4 -55.5098381 -29.27732849 -55.94073868
4 -55.60622025 -32.74674988 -52.2144928
4 -29.15995789 -51.5318718 -41.4312973
4 -32.32024002 -54.58168793 -43.19634628
4 -37.29498672 -51.86324692 -42.78913879
4 -38.62073517 -50.29507446 -40.35497284
4 -43.20834351 -46.20278168 -41.23347473
4 -44.12485123 -41.11364746 -40.8273735
4 -44.53768539 -35.22780228 -41.02903366
4 -41.83613586 -31.17156219 -44.60326004
4 -44.79521942 -28.28593826 -48.85412979
4 34.64087677 -58.83273315 -46.51268387
4 37.10700607 -59.94329453 -43.36082077
4 40.88100052 -58.48114777 -38.61463547
4 41.66059113 -57.25297546 -33.04891205
4 45.36021042 -55.11414337 -30.22467995
4 46.87188339 -49.95148849 -29.1972332
4 49.46782303 -45.71962357 -28.33244514
4 47.96631622 -40.57593155 -27.69430733
4 51.38040924 -35.56573486 -27.5557785
4 32.81075668 -51.24185181 45.48606491
4 29.35917473 -52.8810463 50.14202881
4 24.98832893 -53.06378937 48.53475952
4 26.79052734 -55.74879456 51.71865082
4 30.71222687 -55.68587112 55.64360809
4 35.52931976 -56.15476227 59.57901382
4 32.86262512 -51.65353775 60.5634346
4 34.71715546 -47.6628418 63.11767578
4 35.54919815 -42.03171921 63.10455704
4 -41.96975327 -60.09327316 44.19649506
4 -45.8333931 -62.86938858 40.51480103
4 -49.41189957 -63.88410568 37.52745438
4 -46.7806015 -66.8460083 33.67478561
4 -42.09189224 -66.12934113 31.0398922
4 -45.15460968 -61.30194855 30.87106514
4 -47.92365265 -56.16294098 30.5969162
4 -50.29410553 -52.25139236 31.44543266
4 -51.00102234 -46.73220062 28.78651428
